/*--------------------------------*- C++ -*----------------------------------*\
| =========                 |                                                 |
| \\      /  F ield         | OpenFOAM: The Open Source CFD Toolbox           |
|  \\    /   O peration     | Version:  2.4.x                                 |
|   \\  /    A nd           | Web:      www.OpenFOAM.org                      |
|    \\/     M anipulation  |                                                 |
\*---------------------------------------------------------------------------*/
FoamFile
{
    version     2.0;
    format      ascii;
    class       volScalarField;
    location    "0.09";
    object      chi;
}
// * * * * * * * * * * * * * * * * * * * * * * * * * * * * * * * * * * * * * //

dimensions      [0 0 -1 0 0 0 0];

internalField   nonuniform List<scalar> 
1250
(
0.0306912
0.210784
0.657879
1.50535
2.83065
4.54459
6.47478
8.44662
10.2242
11.7524
13.0164
13.8676
14.4632
14.7411
14.8556
14.7501
14.428
13.9729
13.4421
12.8506
12.2068
11.5526
10.896
10.2386
9.61035
8.99796
8.41931
7.86554
7.3479
6.85897
6.40465
5.98026
5.5862
5.22107
4.88421
4.57361
4.28909
4.0299
3.78984
3.58154
3.38232
3.20855
3.06982
2.89066
2.87658
3.15853
4.28861
6.34473
5.85196
2.23588
0.036001
0.254755
0.818701
1.88969
3.50651
5.49518
7.64655
9.7004
11.5038
12.9767
14.1366
14.9069
15.3654
15.5634
15.581
15.3398
14.9374
14.4231
13.827
13.1791
12.4982
11.8049
11.1152
10.4381
9.7845
9.15691
8.56034
7.99511
7.46423
6.96643
6.50227
6.06998
5.66916
5.29763
4.9554
4.63955
4.35082
4.08754
3.84406
3.6328
3.4305
3.25407
3.11326
2.93111
2.91357
3.19511
4.32279
6.34359
5.84131
2.22238
0.0525479
0.40778
1.40014
3.21249
5.6551
8.30515
10.8207
12.9793
14.6776
15.9338
16.7989
17.2802
17.4664
17.4309
17.1272
16.6572
16.0703
15.3977
14.6657
13.902
13.1251
12.3522
11.5961
10.8651
10.1634
9.49586
8.86563
8.2717
7.71567
7.19601
6.71244
6.26315
5.84713
5.46216
5.10785
4.78116
4.48307
4.21122
3.96031
3.74264
3.53368
3.35161
3.20683
3.01724
2.99188
3.27456
4.39848
6.34358
5.80535
2.18684
0.110098
1.00328
3.57837
7.42787
11.3711
14.7954
17.3875
19.2865
20.3829
21.0093
21.2454
21.1569
20.7818
20.2144
19.4892
18.66
17.7754
16.854
15.9135
14.9756
14.0553
13.1634
12.3092
11.4959
10.7239
9.99592
9.3152
8.67887
8.0854
7.53327
7.02087
6.5462
6.10767
5.70281
5.33071
4.98817
4.67634
4.39195
4.13026
3.90318
3.68444
3.4945
3.34334
3.14392
3.10362
3.39345
4.51105
6.34613
5.74843
2.12902
0.555609
4.81231
12.8498
20.0857
24.8731
27.8486
28.9987
29.4883
29.1326
28.4386
27.4925
26.3964
25.1732
23.8856
22.564
21.249
19.9678
18.718
17.5067
16.3455
15.2414
14.1977
13.2183
12.3003
11.4384
10.6339
9.88722
9.19587
8.55474
7.96083
7.41153
6.90436
6.43694
6.00686
5.61221
5.24967
4.92049
4.62029
4.34518
4.10612
3.875
3.67564
3.51593
3.3043
3.25061
3.54397
4.64832
6.34323
5.67006
2.05014
12.1824
30.1628
43.0347
47.4298
48.406
47.8282
45.548
42.9332
40.1851
37.5445
35.0075
32.5924
30.2913
28.1302
26.1054
24.2281
22.4876
20.859
19.3376
17.9219
16.6081
15.3911
14.2685
13.2302
12.2663
11.3744
10.5515
9.79446
9.09763
8.45528
7.86314
7.31805
6.81704
6.35762
5.93717
5.55181
5.20268
4.88438
4.59413
4.34103
4.09567
3.88619
3.71569
3.49062
3.43083
3.7198
4.79793
6.32692
5.56647
1.95339
23.7883
62.6094
75.9646
76.2405
72.7525
68.5341
62.404
56.6655
51.4323
46.7937
42.6189
38.8633
35.482
32.4525
29.7255
27.2889
25.0898
23.0804
21.2467
19.5739
18.0465
16.6525
15.3824
14.2198
13.1499
12.1671
11.2647
10.4373
9.67988
8.98564
8.34777
7.76213
7.22522
6.73448
6.28671
5.87745
5.50722
5.16978
4.8637
4.59521
4.33478
4.11531
3.93164
3.69328
3.63271
3.91448
4.9534
6.28769
5.4339
1.84204
9.67023
55.4324
84.362
89.5052
86.592
81.1529
73.8422
66.6726
60.0731
54.1637
48.8566
44.1292
39.9373
36.2334
32.9485
30.0501
27.469
25.1379
23.0352
21.1368
19.4202
17.868
16.4638
15.1868
14.0182
12.9492
11.9712
11.0768
10.2599
9.5143
8.83187
8.20673
7.6348
7.11351
6.63903
6.20676
5.81609
5.45997
5.13848
4.85417
4.57906
4.35035
4.15112
3.90145
3.84377
4.11862
5.103
6.21911
5.2698
1.7201
3.85749
32.1405
65.7332
81.8216
84.5811
82.2777
76.8446
70.3313
63.9573
57.8734
52.3393
47.3406
42.8592
38.8579
35.2941
32.1347
29.3166
26.776
24.4909
22.4348
20.5825
18.9133
17.4056
16.0383
14.7897
13.649
12.6078
11.6571
10.7902
9.99931
9.278
8.61883
8.01645
7.46861
6.97072
6.51827
6.10959
5.737
5.40169
5.10219
4.81409
4.57727
4.36032
4.10408
4.05203
4.32263
5.23319
6.11787
5.07258
1.59271
1.79455
12.544
34.9681
55.9844
67.4805
71.1335
70.4786
66.8922
62.6505
57.5974
52.7667
48.0828
43.7809
39.8849
36.3691
33.1996
30.3307
27.7411
25.4062
23.2986
21.3893
19.6625
18.0983
16.6773
15.379
14.1922
13.1091
12.121
11.2202
10.3976
9.64806
8.96446
8.34016
7.77305
7.2579
6.79034
6.3677
5.98232
5.63595
5.32321
5.02503
4.78118
4.54531
4.29048
4.24787
4.51792
5.33182
5.97895
4.84359
1.46362
0.170335
2.59114
11.4597
26.7295
41.5436
51.1655
55.7543
56.4469
55.3495
52.3827
49.4366
45.8393
42.3916
39.091
35.9772
33.0816
30.3913
27.9163
25.6554
23.5947
21.717
20.0048
18.4451
17.0202
15.7137
14.516
13.4224
12.4237
11.5108
10.6759
9.91336
9.21875
8.58445
8.00821
7.48423
7.00851
6.57736
6.18393
5.82981
5.50683
5.20233
4.95223
4.69755
4.45551
4.42648
4.69237
5.38285
5.80305
4.58362
1.32847
0.0455557
0.515175
2.56549
8.00524
17.1025
27.3456
35.3528
40.1137
42.3708
42.492
41.7861
39.9675
38.0317
35.8254
33.4669
31.2059
29.0097
26.9139
24.9443
23.1002
21.385
19.792
18.3229
16.9668
15.7104
14.5517
13.4863
12.5074
11.6104
10.788
10.0345
9.34786
8.71983
8.14834
7.62707
7.15268
6.72059
6.32552
5.96826
5.63962
5.33343
5.07761
4.80762
4.59098
4.57949
4.83402
5.3706
5.5821
4.2733
1.17909
0.0203329
0.151499
0.587066
1.76225
4.45302
9.16467
15.3833
21.3186
25.8446
28.6869
30.2374
30.619
30.3579
29.6104
28.4162
27.1825
25.7732
24.2924
22.8503
21.4297
20.0494
18.7217
17.4674
16.2812
15.164
14.1188
13.1448
12.2402
11.4039
10.633
9.9229
9.27365
8.67759
8.13259
7.63189
7.1736
6.75293
6.36643
6.01339
5.68651
5.38495
5.1252
4.85089
4.66932
4.67855
4.89942
5.28654
5.30175
3.8883
1.00943
0.0112771
0.0622559
0.185027
0.44991
1.00585
2.12925
4.15443
7.14216
10.7435
14.1797
16.9947
19.0132
20.3009
20.9886
21.1413
20.9617
20.5601
19.8888
19.1712
18.3513
17.4568
16.539
15.6401
14.7472
13.875
13.0305
12.2273
11.4672
10.7526
10.0862
9.46683
8.89383
8.36323
7.87255
7.41562
6.9937
6.60159
6.23862
5.90208
5.58855
5.30213
5.04453
4.79253
4.6571
4.65722
4.8321
5.12308
4.94901
3.39345
0.826655
0.00692717
0.0315027
0.0773051
0.157883
0.296925
0.538484
0.963772
1.69647
2.85052
4.45315
6.35246
8.30801
10.0705
11.5333
12.6302
13.3847
13.8542
14.054
14.0554
13.8929
13.605
13.2082
12.769
12.259
11.7208
11.1581
10.6072
10.0622
9.5347
9.02958
8.55173
8.10067
7.67553
7.27272
6.89114
6.5321
6.19104
5.87144
5.56941
5.28523
5.02869
4.79023
4.59305
4.50015
4.48312
4.61543
4.84781
4.48969
2.79194
0.634579
0.00448771
0.0179515
0.0389195
0.0705379
0.117406
0.187042
0.292261
0.453738
0.703334
1.08368
1.64112
2.39137
3.29457
4.30033
5.31789
6.27073
7.10932
7.80146
8.33301
8.70613
8.93759
9.03889
9.0398
8.9418
8.77635
8.55742
8.30854
8.02362
7.73034
7.4277
7.12837
6.83552
6.54646
6.26096
5.98305
5.71202
5.44828
5.19617
4.95212
4.71886
4.51425
4.33778
4.20552
4.13604
4.14129
4.27223
4.40849
3.88578
2.12567
0.443837
0.00296815
0.01095
0.0219564
0.0368354
0.0566465
0.0828859
0.117869
0.165118
0.229891
0.31979
0.445251
0.619655
0.857326
1.1688
1.55243
2.00219
2.5036
3.03186
3.5553
4.04455
4.47902
4.84394
5.13264
5.3407
5.47504
5.54467
5.56122
5.53128
5.46808
5.36925
5.26332
5.14023
5.00018
4.85021
4.69392
4.53186
4.36887
4.20756
4.04751
3.89689
3.76957
3.67292
3.60148
3.58195
3.63894
3.78625
3.77263
3.12668
1.43979
0.271749
0.00197071
0.00692298
0.0132379
0.0211698
0.0310004
0.0430729
0.0578519
0.0759993
0.0984639
0.126564
0.162168
0.207563
0.265764
0.340301
0.434771
0.554416
0.703188
0.882699
1.09199
1.32732
1.58253
1.84785
2.10906
2.35476
2.57584
2.76647
2.92195
3.0418
3.12965
3.18708
3.22171
3.23589
3.23054
3.20879
3.17376
3.12758
3.07463
3.01762
2.95899
2.90732
2.87033
2.8555
2.86415
2.91666
3.02336
3.1364
2.97246
2.23246
0.816424
0.139857
0.00129772
0.00443863
0.00826594
0.0128684
0.0183297
0.0247347
0.0321786
0.0407759
0.0506995
0.0621788
0.0755428
0.0911778
0.109595
0.131408
0.15744
0.188611
0.226092
0.271346
0.325866
0.390568
0.467915
0.557907
0.658301
0.768026
0.885385
1.00684
1.12576
1.23866
1.34345
1.43905
1.52532
1.60215
1.66903
1.72633
1.7746
1.8149
1.84935
1.87977
1.90872
1.94226
1.9843
2.04082
2.11314
2.21342
2.31981
2.33474
2.06392
1.27488
0.359898
0.0579532
0.000837504
0.00283537
0.00522731
0.0080549
0.0113458
0.0151179
0.019383
0.0241211
0.0293729
0.0351365
0.041444
0.0483427
0.0559101
0.0642404
0.0734714
0.0837748
0.0953616
0.108529
0.123622
0.141086
0.161341
0.184853
0.21211
0.24312
0.27938
0.32135
0.36795
0.418751
0.473111
0.530975
0.59177
0.654878
0.719413
0.784536
0.849628
0.914437
0.979178
1.04443
1.11146
1.18286
1.25961
1.34285
1.43236
1.52205
1.55814
1.47635
1.13249
0.503525
0.118102
0.0211591
0.000520891
0.00177422
0.00329376
0.00510422
0.00721531
0.00962214
0.012307
0.0152451
0.0184024
0.0217443
0.0252522
0.0289021
0.0326895
0.0365981
0.0406523
0.0448941
0.0493835
0.0541776
0.0593553
0.0650782
0.0714635
0.0786746
0.0869497
0.096581
0.107736
0.121033
0.137978
0.158081
0.18075
0.207181
0.237488
0.271667
0.309625
0.35121
0.396268
0.444702
0.496449
0.551574
0.61025
0.672245
0.736104
0.799193
0.853347
0.875702
0.842389
0.699014
0.390017
0.132676
0.0323127
0.00750591
0.000303007
0.00106806
0.00204641
0.0032566
0.0046964
0.00634618
0.00817378
0.0101464
0.012215
0.0143376
0.0165151
0.0186621
0.0207799
0.0228523
0.0248737
0.0268554
0.0288288
0.0308115
0.0328361
0.0349629
0.0372774
0.0398957
0.0428694
0.0464365
0.0509065
0.0564237
0.0636971
0.0730338
0.083837
0.0967255
0.111879
0.129359
0.149208
0.171473
0.196158
0.223222
0.252544
0.283836
0.316379
0.348503
0.377174
0.396353
0.398445
0.3771
0.307796
0.194131
0.0852597
0.0289767
0.00895471
0.00253872
0.000154485
0.000613281
0.00127594
0.00215064
0.00321272
0.00442553
0.00575631
0.00714444
0.0085548
0.00995746
0.0113266
0.0126378
0.0138714
0.0150017
0.0160264
0.0169565
0.0178125
0.0186089
0.0193359
0.0200177
0.0207359
0.0215899
0.0227127
0.0242013
0.0261298
0.0288228
0.0325389
0.037411
0.043144
0.0499612
0.0579151
0.0669512
0.0769668
0.0878411
0.0994054
0.111406
0.123459
0.135009
0.145066
0.151746
0.153182
0.148935
0.132874
0.104754
0.069842
0.0380494
0.017068
0.00679347
0.00243344
0.000733357
6.05553e-05
0.000366479
0.000913239
0.00164562
0.00249577
0.00344287
0.00441932
0.00537914
0.00632466
0.00723418
0.00808829
0.00886967
0.00955814
0.0100998
0.0105123
0.0108666
0.0111944
0.0114739
0.0116092
0.0115456
0.0115401
0.0116432
0.0119242
0.0125267
0.0135647
0.0149979
0.0169804
0.0195833
0.0226112
0.026126
0.0301207
0.0345799
0.0393533
0.0439768
0.048237
0.0518472
0.0545321
0.0557455
0.0555065
0.0536862
0.0488399
0.0415126
0.0324962
0.0229214
0.0142989
0.00768841
0.00357017
0.00147661
0.0005412
0.000160519
2.28217e-05
0.000396282
0.000887061
0.00139679
0.00195464
0.00254983
0.00314027
0.00376071
0.00441073
0.00503463
0.00561208
0.00612307
0.00655012
0.00688391
0.00710617
0.00719068
0.00712617
0.00693201
0.00667225
0.00640231
0.00616151
0.00600061
0.0059744
0.00613632
0.00652718
0.00716611
0.00806095
0.00922788
0.0106532
0.0122771
0.014033
0.0158416
0.0176056
0.0191949
0.0204428
0.0211782
0.0212714
0.0206278
0.0192158
0.0170771
0.0143299
0.011268
0.00820868
0.00547425
0.00329598
0.00178289
0.000855341
0.000372086
0.000149085
3.90962e-05
)
;

boundaryField
{
    AXIS
    {
        type            empty;
    }
    OUTLET
    {
        type            zeroGradient;
    }
    COFLOW
    {
        type            calculated;
        value           uniform 0;
    }
    PILOT
    {
        type            calculated;
        value           uniform 0;
    }
    FUEL
    {
        type            calculated;
        value           uniform 0;
    }
    WALL
    {
        type            zeroGradient;
    }
    front
    {
        type            wedge;
    }
    back
    {
        type            wedge;
    }
}


// ************************************************************************* //
