/*--------------------------------*- C++ -*----------------------------------*\
| =========                 |                                                 |
| \\      /  F ield         | OpenFOAM: The Open Source CFD Toolbox           |
|  \\    /   O peration     | Version:  2.4.x                                 |
|   \\  /    A nd           | Web:      www.OpenFOAM.org                      |
|    \\/     M anipulation  |                                                 |
\*---------------------------------------------------------------------------*/
FoamFile
{
    version     2.0;
    format      ascii;
    class       volScalarField;
    location    "0.09";
    object      epsilon;
}
// * * * * * * * * * * * * * * * * * * * * * * * * * * * * * * * * * * * * * //

dimensions      [0 2 -3 0 0 0 0];

internalField   nonuniform List<scalar> 
1250
(
76.2146
136.064
196.278
280.376
388.739
512.368
636.886
757.338
850.667
926.399
986.692
1022.11
1047.92
1051.39
1047.71
1032.18
1009.36
978.879
945.725
908.904
867.282
825.815
784.713
743.533
704.583
664.7
627.405
590.705
556.665
523.798
493.359
464.473
437.588
412.642
389.183
367.442
346.892
327.727
309.824
293.353
276.977
263.47
250.535
234.053
231.851
251.512
330.445
611.705
636.634
294.261
80.2101
146.383
221.107
325.827
455.491
596.286
735.398
854.724
947.264
1015.71
1067.65
1098.53
1113.17
1110.99
1099.79
1075.93
1046.56
1012.55
973.968
932.565
888.728
844.029
800.201
758.183
717.079
676.266
637.263
599.819
564.553
531.124
499.825
470.332
442.967
417.518
393.69
371.528
350.672
331.192
313.02
296.304
279.714
265.986
252.832
236.153
233.714
253.295
331.966
611.785
636.28
293.21
88.0664
177.072
300.879
469.095
657.671
838.015
990.495
1104.61
1182.47
1230.87
1261.64
1270.09
1263.61
1244.03
1211.28
1171.22
1128.94
1083.6
1034.88
984.709
933.763
883.126
834.328
788.525
743.982
700.204
658.434
618.736
581.485
546.385
513.615
482.863
454.348
427.899
403.193
380.216
358.649
338.535
319.776
302.521
285.48
271.274
257.713
240.515
237.72
257.272
335.573
612.373
632.633
289.987
104.869
271.683
545.529
872.873
1156.48
1368.51
1503.38
1580.08
1605.2
1600.33
1583.66
1548.49
1500.05
1443.82
1380.69
1315.17
1251.98
1188.64
1124.52
1061.36
999.866
940.475
884.457
832.462
782.989
734.963
689.173
646.236
606.078
568.554
533.636
501.032
470.84
442.894
416.915
392.76
370.161
349.126
329.514
311.494
293.799
278.923
264.758
246.913
243.702
263.348
341.485
614.098
626.494
284.706
200.276
696.68
1385.18
1972.68
2267.88
2391.37
2384.43
2336.5
2235.83
2128.6
2026.1
1919.94
1810.88
1703.09
1597.14
1497.61
1406.96
1320.11
1236.42
1156.99
1082.22
1011.86
946.768
887.074
830.967
777.83
727.473
680.348
636.652
596.08
558.483
523.575
491.289
461.482
433.894
408.284
384.399
362.223
341.564
322.612
304.105
288.429
273.504
254.921
251.376
271.29
349.533
616.086
617.966
277.24
1116.13
2830.55
3975.1
4108.21
4031.48
3834.68
3540.8
3257.42
2986.93
2749.15
2537.91
2341.62
2158
1990.07
1836.65
1699.8
1578.39
1465.32
1359.98
1262.77
1173.44
1091.03
1015.92
947.714
884.409
825.326
770.142
718.642
670.927
626.981
586.422
548.897
514.279
482.357
452.926
425.702
400.379
376.93
355.121
335.135
315.724
299.198
283.399
264.105
260.403
280.848
359.653
617.309
607.018
267.6
1209.5
4163.56
5453.51
5514.36
5305.04
4975.04
4496.68
4050.14
3649.23
3305.51
3000.64
2725.7
2478.53
2259.7
2063.67
1892.88
1743.11
1605.75
1480.26
1366.47
1263.34
1169.47
1084.79
1008.46
938.319
873.361
813.278
757.633
706.125
658.74
615.176
574.983
537.994
503.94
472.609
443.709
416.93
392.188
369.225
348.191
327.868
310.534
293.801
273.956
270.388
291.638
371.871
616.735
593.441
255.834
497.483
2393.98
4473.37
5236.13
5313.16
5157.81
4800.98
4388.35
3989.94
3626.79
3289.13
2979.96
2701.73
2454.64
2234.47
2043.06
1874.12
1719.81
1579.67
1453.56
1340.02
1237.48
1145.36
1062.59
986.909
917.007
852.638
793.41
738.727
688.395
642.141
599.544
560.386
524.408
491.335
460.873
432.753
406.829
382.823
360.83
339.685
321.666
304.012
283.924
280.853
303.106
385.962
613.152
577.193
242.09
249.646
1018.44
2490.72
3702.42
4306.77
4491.51
4418.47
4199.05
3914.24
3615.93
3317.99
3033.35
2769.18
2528.67
2311.04
2120.32
1947.74
1787.42
1641.76
1510.65
1392.52
1285.79
1189.74
1103.32
1024.13
950.907
883.644
821.875
765.108
712.732
664.494
620.115
579.293
541.835
507.421
475.718
446.498
419.637
394.817
372.055
350.289
331.787
313.31
293.453
291.24
314.603
400.457
606.559
558.505
226.565
149.014
364.903
964.142
1897.73
2713.8
3224.37
3473.57
3519.56
3457.78
3305.27
3107.82
2891.74
2677.29
2472.67
2282.7
2110.97
1948.12
1794.65
1654.72
1527.56
1411.83
1306.46
1210.95
1124.17
1044.06
969.94
901.831
839.26
781.688
728.625
679.618
634.278
592.595
554.343
519.183
486.783
456.899
429.441
404.138
380.909
358.82
340.096
320.994
302.012
300.938
325.476
414.739
596.383
537.62
209.564
32.0639
110.274
305.933
712.201
1306.94
1879.17
2302.02
2559.52
2685.19
2688.07
2642.29
2538.66
2412.77
2277.39
2141.15
2006.77
1869.9
1737.13
1613.59
1498.64
1392
1293.43
1202.93
1119.55
1041.95
969.943
903.582
842.369
785.802
733.66
685.154
640.047
598.592
560.461
525.33
492.904
462.936
435.405
409.999
386.668
364.656
346.011
326.611
309.288
309.512
335.268
427.953
582.1
514.079
190.855
17.1659
42.8771
101.887
222.299
454.514
811.126
1197.89
1527.24
1767.91
1913.12
1988.57
1998.15
1977.27
1926.34
1854.13
1770.88
1679.41
1586.57
1494.91
1404.8
1317.63
1234.35
1155.83
1081.71
1011.63
945.885
884.471
827.207
773.859
724.376
677.95
634.644
594.767
557.915
523.811
492.226
462.938
436.038
411.117
388.267
366.826
348.629
329.499
314.761
316.698
343.576
438.743
562.504
486.24
169.107
13.1961
23.5323
42.3828
76.6602
140.781
255.262
445.141
678.631
909.161
1104.52
1252.55
1351.73
1412.38
1439.8
1436.8
1419.37
1383.01
1337.12
1285.57
1229.41
1170.59
1110.98
1052.1
994.39
938.424
884.475
832.781
783.591
737.03
693.107
651.381
612.338
576.154
542.381
510.831
481.411
453.955
428.649
405.05
383.465
363.306
346.12
328.186
316.98
321.155
348.847
445.637
536.163
451.906
143.268
11.607
16.4092
23.8289
34.9623
52.851
83.2818
135.006
217.184
335.935
471.905
607.359
728.968
829.213
905.896
957.598
990.306
1005.58
1005.06
997.343
979.077
953.179
922.687
889.276
853.613
816.705
778.971
741.211
703.952
667.65
632.358
598.44
566.531
536.433
507.859
480.776
455.262
431.217
408.93
387.98
368.807
351.106
335.883
320.715
313.901
319.497
349.597
446.121
501.516
405.431
115.597
10.8402
13.2524
16.6366
21.1559
27.344
36.2843
49.9828
71.5061
104.236
151.788
215.159
289.433
366.963
441.665
508.204
564.382
609.14
642.264
665.449
679.135
683.974
682.15
675.826
663.864
648.07
629.146
608.274
585.863
562.74
539.311
516.191
493.782
471.928
450.61
429.962
410.146
391.166
373.391
356.575
341.056
327.128
315.21
304.675
302.858
310.596
345.281
434.815
456.502
340.061
88.6112
10.4325
11.6621
13.3237
15.4192
18.0447
21.4221
25.9402
32.1995
41.0061
53.4971
71.1611
94.8679
125.084
161.189
201.369
243.33
284.518
322.95
357.182
386.162
409.358
426.813
439.304
446.884
449.122
447.888
444.036
436.982
428.128
417.714
406.462
394.667
382.4
369.806
357.1
344.457
332.049
320.274
309.042
298.686
289.81
282.833
278.761
280.91
293.213
335.072
404.675
400.034
260.579
63.7831
10.2028
10.7993
11.6203
12.6433
13.8785
15.3665
17.1902
19.4772
22.387
26.146
31.1069
37.535
45.8079
56.3076
69.2832
84.8858
103.036
123.399
145.305
167.765
189.7
210.153
228.495
244.238
256.839
266.604
273.789
278.388
280.851
281.08
280.33
278.391
275.278
271.374
266.902
262.018
256.965
252.067
247.345
243.319
240.524
240.103
241.713
248.685
267.052
313.183
350.918
328.46
175.704
41.8326
10.0711
10.3186
10.6982
11.1878
11.7816
12.4817
13.3003
14.2617
15.4012
16.7714
18.4355
20.433
22.844
25.7595
29.2953
33.5478
38.6592
44.7811
52.0528
60.4771
69.9661
80.3229
91.2602
102.481
113.454
123.879
133.417
141.836
149.132
155.261
160.42
164.734
168.219
171.014
173.254
175.023
176.55
178.053
179.619
181.828
185.123
190.195
197.404
210.025
233.278
271.229
279.365
240.665
99.1327
24.7923
9.99761
10.0637
10.2095
10.4238
10.6974
11.0236
11.3988
11.8219
12.2999
12.8402
13.4529
14.1486
14.9412
15.8387
16.8613
18.0309
19.3895
20.9824
22.8349
25.0229
27.5745
30.5328
33.968
37.9019
42.3217
47.2161
52.4344
57.9053
63.5318
69.2055
74.8653
80.502
86.064
91.5403
96.9166
102.224
107.57
113.034
118.748
125.161
132.572
141.416
152.193
167.587
189.023
206.642
197.218
139.195
45.9591
13.6802
9.96707
9.96128
10.004
10.0935
10.2158
10.362
10.5263
10.6926
10.8763
11.0674
11.2681
11.4808
11.7078
11.951
12.2192
12.5222
12.8612
13.2388
13.6663
14.1696
14.7588
15.4513
16.2939
17.333
18.5848
20.1227
22.03
24.3311
27.0285
30.124
33.6003
37.4694
41.7134
46.3025
51.2138
56.4527
62.0411
68.0249
74.5137
81.7506
89.8356
98.9905
109.474
121.92
132.283
132.12
110.736
55.7818
19.0899
8.11056
9.98093
10.0011
10.0596
10.1386
10.2214
10.2968
10.3573
10.4003
10.4235
10.4269
10.4172
10.3961
10.3692
10.3353
10.3036
10.2794
10.2665
10.2675
10.2879
10.3417
10.4303
10.5662
10.7745
11.0828
11.5099
12.0875
12.872
13.9168
15.2405
16.8499
18.7576
20.98
23.528
26.4107
29.638
33.2321
37.2069
41.5991
46.4589
51.8327
57.6571
63.8506
69.8254
73.8399
73.2726
64.7995
40.3404
18.5576
8.85771
5.75167
10.0748
10.2872
10.5248
10.7324
10.8802
10.956
10.9598
10.9057
10.7943
10.6382
10.4724
10.2676
10.0517
9.83136
9.61321
9.40394
9.21303
9.04135
8.89185
8.77141
8.6913
8.66582
8.68838
8.78797
9.00306
9.32882
9.78865
10.412
11.207
12.1668
13.2901
14.5792
16.0352
17.6637
19.4701
21.4557
23.6176
25.9544
28.4384
30.9619
33.3108
35.005
35.4228
34.267
29.5005
21.1489
12.5927
7.70291
5.61231
4.83941
10.4963
11.4425
12.2286
12.7855
13.063
13.0996
12.9693
12.6807
12.3004
11.8724
11.4252
10.9728
10.5268
10.0873
9.66608
9.27389
8.91981
8.60421
8.3159
8.05584
7.84145
7.68665
7.60834
7.60573
7.6712
7.86461
8.16787
8.57074
9.07412
9.66164
10.3187
11.0297
11.7763
12.546
13.3257
14.0991
14.8402
15.5191
16.0672
16.3721
16.3671
15.8957
14.574
12.5493
10.0108
7.62601
5.91273
5.01004
4.59624
4.41563
13.9883
18.5417
20.5462
21.1057
20.7175
19.9242
18.7694
17.4591
16.2215
15.0726
14.0165
13.0493
12.1568
11.2885
10.4846
9.81087
9.26943
8.81173
8.3434
7.8146
7.37994
7.04041
6.80611
6.69176
6.68424
6.74607
6.87668
7.07342
7.32626
7.61349
7.92342
8.25286
8.57139
8.80094
8.94161
8.98999
8.95326
8.81949
8.57294
8.20915
7.73064
7.1552
6.51972
5.8885
5.33101
4.83069
4.47704
4.30792
4.23259
4.18923
148.915
119.678
90.3758
70.7023
56.9646
47.4098
38.8091
32.9119
29.1281
25.9793
23.3212
21.0421
19.0579
17.31
15.7454
14.3148
12.9857
11.7502
10.6293
9.63918
8.7874
8.08591
7.54341
7.16109
6.93045
6.83178
6.84112
6.9438
7.11573
7.31966
7.52628
7.71214
7.85792
7.94673
7.96427
7.90287
7.76622
7.56293
7.3054
7.0189
6.72486
6.44345
6.19064
5.97995
5.81086
5.68634
5.5866
5.51677
5.45745
5.41617
)
;

boundaryField
{
    AXIS
    {
        type            empty;
    }
    OUTLET
    {
        type            zeroGradient;
    }
    COFLOW
    {
        type            fixedValue;
        value           uniform 10;
    }
    PILOT
    {
        type            fixedValue;
        value           uniform 10;
    }
    FUEL
    {
        type            fixedValue;
        value           uniform 50;
    }
    WALL
    {
        type            compressible::epsilonWallFunction;
        Cmu             0.09;
        kappa           0.41;
        E               9.8;
        value           nonuniform List<scalar> 
50
(
148.915
119.678
90.3758
70.7023
56.9646
47.4098
38.8091
32.9119
29.1281
25.9793
23.3212
21.0421
19.0579
17.31
15.7454
14.3148
12.9857
11.7502
10.6293
9.63918
8.7874
8.08591
7.54341
7.16109
6.93045
6.83178
6.84112
6.9438
7.11573
7.31966
7.52628
7.71214
7.85792
7.94673
7.96427
7.90287
7.76622
7.56293
7.3054
7.0189
6.72486
6.44345
6.19064
5.97995
5.81086
5.68634
5.5866
5.51677
5.45745
5.41617
)
;
    }
    front
    {
        type            wedge;
    }
    back
    {
        type            wedge;
    }
}


// ************************************************************************* //
