/*--------------------------------*- C++ -*----------------------------------*\
| =========                 |                                                 |
| \\      /  F ield         | OpenFOAM: The Open Source CFD Toolbox           |
|  \\    /   O peration     | Version:  2.4.x                                 |
|   \\  /    A nd           | Web:      www.OpenFOAM.org                      |
|    \\/     M anipulation  |                                                 |
\*---------------------------------------------------------------------------*/
FoamFile
{
    version     2.0;
    format      ascii;
    class       volScalarField;
    location    "0.09";
    object      k;
}
// * * * * * * * * * * * * * * * * * * * * * * * * * * * * * * * * * * * * * //

dimensions      [0 2 -2 0 0 0 0];

internalField   nonuniform List<scalar> 
1250
(
5.55694
5.94501
5.90655
5.98231
6.20641
6.53017
6.83355
7.09709
7.21826
7.28571
7.29745
7.26833
7.20771
7.08438
6.94743
6.76706
6.59948
6.41696
6.23347
6.04227
5.83835
5.63937
5.44725
5.26135
5.08453
4.90279
4.73274
4.56517
4.40933
4.25794
4.11721
3.98234
3.85692
3.74063
3.62929
3.52808
3.42766
3.33517
3.25338
3.16125
3.0925
3.03045
2.93463
2.9071
2.97065
3.23872
4.20213
7.10887
7.06982
3.6014
5.60986
5.94168
5.95966
6.11346
6.41235
6.77987
7.12201
7.35281
7.46404
7.50507
7.49812
7.4581
7.36794
7.23292
7.06929
6.88136
6.6967
6.50829
6.31102
6.10898
5.90224
5.6956
5.4973
5.31216
5.13029
4.94752
4.77253
4.60382
4.44432
4.29198
4.14863
4.01207
3.88536
3.76746
3.65511
3.55241
3.45103
3.35751
3.27459
3.18171
3.11231
3.04899
2.95243
2.92457
2.98759
3.25642
4.22292
7.10978
7.06492
3.59042
5.61213
5.92239
6.14392
6.53855
7.0371
7.47841
7.80844
7.97669
8.03935
8.02404
7.97045
7.86722
7.72328
7.54323
7.33804
7.11873
6.90789
6.69573
6.47639
6.25543
6.03429
5.81573
5.60746
5.41576
5.22797
5.03953
4.85772
4.6837
4.51922
4.3627
4.21551
4.07559
3.94547
3.82446
3.70952
3.60405
3.5003
3.40481
3.31938
3.22486
3.15414
3.08797
2.9903
2.96166
3.02446
3.29629
4.27244
7.11306
7.03584
3.55883
5.42625
6.03683
6.80567
7.70551
8.43227
8.85278
9.07994
9.09554
9.02892
8.87714
8.70246
8.49848
8.264
8.00922
7.73932
7.46932
7.21729
6.96814
6.7168
6.46898
6.22688
5.99112
5.76865
5.56404
5.36787
5.17214
4.98087
4.79932
4.62755
4.46504
4.31224
4.16737
4.03225
3.90645
3.78774
3.67833
3.57118
3.47284
3.38379
3.28707
3.21444
3.14417
3.04548
3.01613
3.07935
3.3574
4.35263
7.1216
6.98638
3.50661
5.58499
7.05743
9.10185
10.5545
11.1133
11.1586
11.0352
10.7336
10.3615
9.99701
9.65406
9.30487
8.94805
8.59131
8.23627
7.90169
7.59789
7.30228
7.01228
6.73228
6.46442
6.20753
5.96727
5.7468
5.53705
5.33323
5.13361
4.94201
4.76162
4.59151
4.43168
4.2807
4.13941
4.00767
3.8841
3.76987
3.65855
3.5567
3.46326
3.3641
3.28911
3.21381
3.11456
3.08524
3.14966
3.43748
4.46175
7.1291
6.91621
3.43263
9.01631
12.9055
14.9881
14.9196
14.6064
13.9404
13.215
12.4989
11.8181
11.2211
10.6835
10.1694
9.67422
9.20668
8.76649
8.36669
8.00764
7.66289
7.33212
7.01879
6.72382
6.44454
6.18514
5.94759
5.72343
5.50856
5.30138
5.10134
4.91109
4.73272
4.5653
4.40733
4.25937
4.12091
3.99157
3.87213
3.75626
3.65059
3.55248
3.45092
3.37327
3.2926
3.1938
3.16577
3.23096
3.5347
4.5981
7.12863
6.82408
3.33683
7.14437
14.7132
17.1204
17.0773
16.6588
15.742
14.7719
13.8322
12.9669
12.216
11.5333
10.8955
10.3013
9.75539
9.24714
8.79336
8.38704
8.00037
7.63471
7.29289
6.97406
6.67493
6.39855
6.14593
5.90918
5.68332
5.46791
5.26147
5.06373
4.87706
4.70203
4.53703
4.38253
4.23766
4.10241
3.97745
3.85722
3.74784
3.64525
3.54174
3.4614
3.37571
3.27899
3.25385
3.32135
3.64395
4.75754
7.11188
6.70928
3.21952
3.15227
9.91603
14.3743
15.8914
16.0929
15.6888
15.0091
14.1985
13.4005
12.6685
11.967
11.3012
10.6791
10.1044
9.57396
9.10025
8.66827
8.2578
7.87148
7.51247
7.17898
6.86823
6.58122
6.31866
6.07337
5.83929
5.6169
5.40563
5.2034
5.01096
4.82949
4.65849
4.49827
4.3481
4.20778
4.07773
3.95372
3.84124
3.73491
3.63033
3.54762
3.45797
3.36558
3.34508
3.41819
3.75933
4.93365
7.07028
6.57153
3.08197
2.2146
5.44717
9.27963
12.0141
13.4553
13.9242
13.8484
13.5097
12.9822
12.4292
11.8373
11.2494
10.6826
10.1498
9.6543
9.21
8.79009
8.38095
7.99627
7.63859
7.30552
6.99494
6.70703
6.44233
6.1938
5.95601
5.73059
5.51695
5.31387
5.1194
4.9342
4.75949
4.59553
4.44194
4.29842
4.16475
4.03792
3.92334
3.81462
3.71023
3.62593
3.53422
3.44889
3.43469
3.51707
3.87434
5.10915
7.00594
6.4123
2.92578
2.01107
2.73928
4.68
7.30744
9.43941
10.7628
11.4389
11.7016
11.6541
11.4613
11.1136
10.7213
10.302
9.87711
9.47141
9.09445
8.7144
8.33483
7.97644
7.63989
7.32449
7.02835
6.75152
6.49318
6.24794
6.01337
5.79096
5.57995
5.37924
5.18756
5.00361
4.82799
4.66338
4.50912
4.3649
4.23015
4.10252
3.98712
3.87777
3.77523
3.69059
3.5995
3.52417
3.51767
3.61109
3.98388
5.2744
6.91736
6.23237
2.75361
1.15429
1.52384
2.23563
3.64846
5.50996
7.17147
8.37617
9.17109
9.60459
9.78809
9.76531
9.658
9.45384
9.20932
8.95547
8.68706
8.38792
8.08022
7.78215
7.49284
7.2133
6.94559
6.69131
6.4494
6.21713
5.99465
5.78255
5.58018
5.38727
5.20362
5.02546
4.85365
4.69273
4.54157
4.39991
4.26709
4.14143
4.0277
3.9197
3.82081
3.73773
3.65069
3.58881
3.59078
3.69427
4.08904
5.42444
6.79856
6.02745
2.56255
1.03997
1.16348
1.36328
1.78967
2.67326
3.9123
5.17027
6.23499
7.02203
7.56961
7.8906
8.07093
8.12086
8.09676
8.0227
7.88678
7.71306
7.52512
7.32506
7.11492
6.90053
6.68672
6.47635
6.26964
6.06712
5.87076
5.68053
5.4968
5.31948
5.14939
4.98263
4.82106
4.66938
4.52617
4.39134
4.26437
4.14444
4.03585
3.93262
3.84058
3.76158
3.68319
3.63896
3.65113
3.76882
4.19068
5.55439
6.63074
5.78108
2.33708
1.01173
1.04949
1.09486
1.19082
1.41727
1.86537
2.60218
3.47359
4.31235
5.03849
5.60094
6.02872
6.32614
6.52291
6.64016
6.6792
6.6675
6.62629
6.54584
6.43922
6.31569
6.18116
6.03752
5.88823
5.73626
5.58357
5.43067
5.27908
5.12984
4.98367
4.83843
4.69754
4.56423
4.43696
4.31587
4.20108
4.09245
3.99371
3.90019
3.81922
3.74866
3.68554
3.66279
3.69049
3.82841
4.2913
5.64328
6.39634
5.46563
2.06602
1.00052
1.00444
1.00741
1.01779
1.05492
1.1493
1.34409
1.68846
2.18747
2.75632
3.32074
3.83937
4.28036
4.63877
4.91979
5.1264
5.27233
5.37362
5.42843
5.44063
5.42889
5.39533
5.33749
5.26523
5.18163
5.08955
4.98901
4.8833
4.77465
4.6636
4.55218
4.44401
4.33924
4.23715
4.13855
4.04431
3.95488
3.87358
3.79763
3.7343
3.68003
3.64204
3.64179
3.68907
3.86107
4.39164
5.6472
6.074
5.03146
1.76058
0.995201
0.98564
0.974311
0.962785
0.955701
0.960936
0.988453
1.05684
1.18444
1.39144
1.68781
2.0404
2.41343
2.77721
3.11392
3.4098
3.66089
3.87244
4.04061
4.16738
4.26247
4.32888
4.36672
4.38192
4.37721
4.35917
4.32243
4.27499
4.2192
4.15786
4.09403
4.02898
3.96271
3.89568
3.82931
3.76495
3.70352
3.64814
3.59869
3.56061
3.53239
3.52934
3.55184
3.63381
3.8586
4.46785
5.51554
5.64253
4.40129
1.44498
0.992649
0.977354
0.960679
0.942724
0.924615
0.908623
0.897415
0.896497
0.909402
0.943699
1.00917
1.11246
1.26549
1.45583
1.67575
1.91149
2.14807
2.37721
2.58947
2.7781
2.94258
3.08262
3.19775
3.28948
3.35761
3.40757
3.43929
3.45744
3.46255
3.4594
3.45025
3.43441
3.41452
3.39134
3.36638
3.34098
3.31688
3.29717
3.28364
3.282
3.28962
3.31941
3.38256
3.51375
3.79824
4.45413
5.19973
5.09073
3.57988
1.13991
0.991418
0.973677
0.954857
0.934834
0.913862
0.892601
0.872001
0.853601
0.838423
0.828461
0.82797
0.836525
0.858665
0.897999
0.960186
1.04573
1.15267
1.27975
1.42259
1.57382
1.72651
1.87471
2.01354
2.13981
2.2512
2.34897
2.43209
2.50247
2.56055
2.60914
2.6498
2.68364
2.71223
2.73639
2.75783
2.77783
2.79843
2.8224
2.85198
2.89224
2.94497
3.02254
3.13215
3.3152
3.64971
4.26955
4.66309
4.36572
2.63398
0.857904
0.990858
0.972065
0.952367
0.931627
0.909869
0.887284
0.864217
0.841169
0.818681
0.797641
0.778759
0.761969
0.748582
0.739958
0.738978
0.744392
0.758356
0.783995
0.823817
0.876869
0.942164
1.01837
1.10395
1.19618
1.29089
1.3859
1.47814
1.5663
1.64959
1.72863
1.80325
1.87411
1.94186
2.00735
2.07153
2.13501
2.19983
2.26822
2.34212
2.42689
2.52622
2.64904
2.80331
3.02834
3.37656
3.83676
3.91752
3.43451
1.70675
0.623777
0.990607
0.971325
0.951189
0.930082
0.907965
0.884891
0.861005
0.836542
0.811792
0.787054
0.762576
0.738698
0.715822
0.694131
0.674226
0.656445
0.641619
0.630497
0.623488
0.623087
0.626815
0.636825
0.656863
0.685972
0.723598
0.770226
0.825296
0.88808
0.957053
1.03085
1.10824
1.18877
1.27189
1.35741
1.44513
1.53539
1.62929
1.7279
1.83308
1.94944
2.0802
2.23046
2.4068
2.63664
2.92298
3.13429
3.0043
2.2776
0.982996
0.456565
0.990466
0.970822
0.950242
0.928628
0.905944
0.882226
0.857583
0.832174
0.806176
0.779782
0.753202
0.726643
0.700285
0.674316
0.649146
0.625097
0.602071
0.58007
0.559508
0.541246
0.525333
0.512424
0.504469
0.503437
0.506507
0.516205
0.536945
0.568034
0.60874
0.658062
0.715061
0.779397
0.850498
0.927732
1.01061
1.09913
1.19346
1.29414
1.40249
1.52112
1.65077
1.7932
1.9495
2.1229
2.25995
2.25078
1.95326
1.17126
0.564904
0.35817
0.990315
0.970111
0.948689
0.925983
0.90202
0.876906
0.850804
0.823907
0.796424
0.768564
0.740521
0.712462
0.684549
0.656949
0.629882
0.603389
0.577464
0.552266
0.528093
0.505187
0.483762
0.464574
0.448863
0.437715
0.432042
0.432003
0.43656
0.450651
0.475789
0.507905
0.546571
0.59152
0.642442
0.699046
0.761083
0.828584
0.901443
0.979905
1.06424
1.15461
1.24899
1.34516
1.43418
1.49081
1.47777
1.34191
0.95366
0.567846
0.374946
0.303643
0.99005
0.968643
0.945306
0.920105
0.893293
0.865197
0.836169
0.806543
0.776628
0.746692
0.716917
0.687451
0.65843
0.629938
0.602027
0.574689
0.547957
0.521899
0.496648
0.472438
0.449734
0.429279
0.411935
0.3986
0.390342
0.387772
0.389202
0.396638
0.41397
0.436656
0.463544
0.494244
0.528308
0.565392
0.605166
0.64728
0.691339
0.737057
0.783585
0.828797
0.869011
0.895846
0.900014
0.874947
0.784066
0.626286
0.453419
0.345091
0.292569
0.269326
0.989589
0.965097
0.936673
0.905216
0.871909
0.837537
0.802801
0.768304
0.734506
0.701636
0.669788
0.638984
0.609186
0.580328
0.552366
0.525255
0.498932
0.473353
0.448578
0.4248
0.402494
0.38228
0.365057
0.351866
0.343656
0.340673
0.341331
0.346252
0.358555
0.374386
0.392315
0.411749
0.432033
0.452598
0.472816
0.492057
0.509555
0.524609
0.535669
0.540669
0.538998
0.525727
0.494439
0.447952
0.388607
0.330885
0.28591
0.259205
0.24484
0.236917
0.988757
0.952993
0.905421
0.854318
0.806619
0.759297
0.714191
0.67251
0.63443
0.599396
0.56694
0.536662
0.508202
0.481307
0.455774
0.431342
0.407722
0.384677
0.36233
0.341121
0.321459
0.303903
0.289224
0.278247
0.27156
0.26912
0.269429
0.272581
0.280584
0.290232
0.30036
0.310393
0.319747
0.327833
0.334003
0.337738
0.338642
0.336957
0.330499
0.319695
0.305332
0.287705
0.268028
0.248239
0.230397
0.216306
0.205947
0.199078
0.194853
0.191243
0.975757
0.843448
0.699441
0.593843
0.514185
0.454947
0.398112
0.356684
0.328795
0.304651
0.2835
0.264716
0.247803
0.232413
0.218191
0.204769
0.191893
0.179523
0.167917
0.157319
0.147904
0.139917
0.133576
0.129012
0.126214
0.125002
0.125106
0.126347
0.128421
0.130863
0.133317
0.135507
0.137215
0.138255
0.138468
0.137765
0.136181
0.133803
0.130755
0.127318
0.123738
0.12026
0.11709
0.114413
0.11224
0.110626
0.109324
0.108409
0.107627
0.107083
)
;

boundaryField
{
    AXIS
    {
        type            empty;
    }
    OUTLET
    {
        type            zeroGradient;
    }
    COFLOW
    {
        type            fixedValue;
        value           uniform 1;
    }
    PILOT
    {
        type            fixedValue;
        value           uniform 1;
    }
    FUEL
    {
        type            fixedValue;
        value           uniform 5;
    }
    WALL
    {
        type            compressible::kqRWallFunction;
        value           nonuniform List<scalar> 
50
(
0.975757
0.843448
0.699441
0.593843
0.514185
0.454947
0.398112
0.356684
0.328795
0.304651
0.2835
0.264716
0.247803
0.232413
0.218191
0.204769
0.191893
0.179523
0.167917
0.157319
0.147904
0.139917
0.133576
0.129012
0.126214
0.125002
0.125106
0.126347
0.128421
0.130863
0.133317
0.135507
0.137215
0.138255
0.138468
0.137765
0.136181
0.133803
0.130755
0.127318
0.123738
0.12026
0.11709
0.114413
0.11224
0.110626
0.109324
0.108409
0.107627
0.107083
)
;
    }
    front
    {
        type            wedge;
    }
    back
    {
        type            wedge;
    }
}


// ************************************************************************* //
