/*--------------------------------*- C++ -*----------------------------------*\
| =========                 |                                                 |
| \\      /  F ield         | OpenFOAM: The Open Source CFD Toolbox           |
|  \\    /   O peration     | Version:  2.4.x                                 |
|   \\  /    A nd           | Web:      www.OpenFOAM.org                      |
|    \\/     M anipulation  |                                                 |
\*---------------------------------------------------------------------------*/
FoamFile
{
    version     2.0;
    format      ascii;
    class       volScalarField;
    location    "0.09";
    object      mut;
}
// * * * * * * * * * * * * * * * * * * * * * * * * * * * * * * * * * * * * * //

dimensions      [1 -1 -1 0 0 0 0];

internalField   nonuniform List<scalar> 
1250
(
0.0365547
0.0208668
0.0128069
0.00837514
0.00598265
0.00466745
0.00384794
0.00328631
0.00285671
0.00250601
0.00222132
0.00201138
0.00182736
0.00166986
0.0015336
0.00140727
0.00130885
0.00122544
0.00115132
0.001084
0.00102258
0.00096694
0.000917282
0.00087643
0.000836808
0.000798583
0.000764451
0.000733741
0.000706396
0.000681904
0.00066021
0.000640747
0.000624171
0.000610579
0.00059835
0.000588725
0.000579313
0.000571834
0.000567561
0.000558583
0.000559039
0.000557991
0.000544114
0.000565516
0.000592384
0.000645256
0.000830289
0.00141264
0.00177711
0.00170955
0.0351344
0.0190105
0.0113331
0.00736744
0.00534156
0.00424561
0.00356374
0.0030849
0.00269085
0.00238133
0.00213074
0.00193945
0.00177089
0.00162501
0.00149348
0.00137941
0.00128565
0.00120642
0.00113507
0.00107039
0.00101131
0.000957422
0.000909384
0.000870129
0.000833095
0.000795707
0.000762179
0.000732025
0.000705122
0.000681048
0.000659644
0.000640459
0.000624017
0.000610589
0.000598562
0.000589065
0.000579783
0.000572451
0.000568211
0.000559406
0.000559975
0.000558878
0.000545188
0.000566774
0.000593944
0.000647429
0.0008353
0.00141512
0.00178015
0.0017091
0.0312988
0.0148326
0.00838116
0.00555208
0.00424878
0.00353272
0.00306511
0.0026864
0.00239326
0.00215627
0.00196173
0.00180189
0.0016595
0.00153198
0.00142042
0.00132112
0.00123838
0.00116706
0.00110193
0.00104239
0.000987786
0.000937816
0.000893079
0.000856762
0.00082397
0.000789533
0.000757315
0.000728234
0.000702338
0.000679036
0.000658333
0.00063977
0.000623615
0.000610531
0.000598954
0.000589756
0.00058074
0.000573754
0.000569567
0.00056114
0.000561931
0.000560706
0.000547461
0.000569669
0.000597479
0.000652438
0.000847229
0.00142044
0.00178673
0.00170751
0.022989
0.00902168
0.00511554
0.00380032
0.00321912
0.00280496
0.00252338
0.00227111
0.00207996
0.00190789
0.00176041
0.00163723
0.00152552
0.00142286
0.00132979
0.00124659
0.001177
0.00111525
0.00105781
0.00100485
0.000956224
0.000911382
0.000871187
0.000838267
0.00080897
0.000780988
0.000750488
0.000723055
0.000698383
0.000676209
0.000656531
0.000638868
0.000623337
0.00061043
0.000599464
0.000590662
0.000582086
0.000575569
0.0005715
0.000563613
0.000564816
0.000563338
0.000551043
0.000574052
0.000602802
0.000660422
0.00086671
0.00142864
0.00179667
0.00170419
0.0101657
0.00385083
0.00306875
0.00273283
0.00250011
0.00227508
0.00212286
0.00194962
0.00180624
0.00168167
0.00157687
0.00148186
0.00139418
0.0013128
0.00123662
0.00116738
0.00111041
0.00105777
0.00100854
0.000962732
0.000920528
0.000881413
0.000845969
0.000816731
0.000790814
0.000766444
0.000742336
0.000716592
0.000693502
0.000672779
0.000654257
0.000637583
0.000622934
0.000610197
0.000599911
0.00059167
0.000583664
0.000577743
0.000573841
0.000566697
0.000568432
0.000566637
0.000555758
0.000580027
0.000609818
0.000671165
0.000893474
0.00143909
0.00180982
0.00169839
0.00220905
0.00227107
0.00228082
0.00216743
0.00206345
0.00191486
0.00179778
0.00168132
0.00157758
0.00148945
0.00141603
0.00134541
0.00127819
0.00121096
0.00114791
0.00109111
0.00104451
0.00100038
0.000958643
0.000919643
0.000883651
0.00085009
0.000819421
0.000793674
0.000771171
0.000749914
0.000729692
0.000709222
0.000687804
0.000668532
0.000651415
0.000636021
0.000622363
0.000610325
0.000600181
0.00059258
0.000585284
0.00058004
0.000576427
0.000570259
0.000572584
0.000570483
0.000561601
0.000587548
0.000617879
0.000684821
0.000927276
0.00145157
0.00182468
0.00168975
0.000828696
0.0014901
0.00174355
0.00177276
0.00175463
0.00164056
0.0015588
0.00147467
0.00139498
0.00132888
0.00127138
0.00121612
0.00116385
0.00111453
0.00106714
0.00102094
0.000982291
0.000945354
0.000910306
0.000877509
0.00084728
0.000818806
0.000792411
0.000769993
0.00075079
0.000732525
0.000715181
0.000698527
0.000681197
0.000663668
0.000647952
0.000633794
0.000621259
0.000610174
0.00060059
0.000593277
0.000586738
0.000582328
0.000579089
0.000574079
0.000577021
0.00057474
0.000568569
0.000596507
0.000627502
0.000700816
0.000966988
0.00146587
0.00184143
0.00167776
0.000338031
0.00103364
0.00133208
0.00143743
0.00146014
0.00140664
0.00135285
0.0012925
0.00123413
0.00118723
0.00114389
0.00110199
0.00106184
0.00102388
0.000988204
0.000956739
0.000924867
0.000894149
0.000864917
0.000837567
0.000811979
0.000787974
0.000765663
0.000746167
0.000729946
0.000714545
0.000699887
0.000685944
0.000672422
0.000657717
0.000643564
0.000630813
0.000619495
0.000609476
0.000600842
0.000593831
0.000587861
0.000584358
0.000581686
0.00057803
0.000581687
0.000579427
0.000576765
0.000606877
0.000639128
0.000718591
0.00101122
0.00148109
0.0018589
0.00166278
0.000341762
0.000753091
0.000996344
0.0011194
0.00118018
0.00118456
0.00115789
0.00112924
0.00109106
0.00106152
0.00102957
0.000998176
0.000967763
0.000939395
0.000913169
0.000890937
0.000868961
0.000843886
0.000820046
0.000797746
0.000776896
0.000757277
0.000738916
0.00072241
0.000708978
0.000696166
0.000683976
0.000672477
0.000661371
0.000650562
0.000637996
0.000626698
0.000616733
0.000607937
0.000600471
0.000594363
0.00058886
0.00058598
0.000584043
0.000581909
0.000586285
0.000584478
0.000586116
0.000618333
0.00065262
0.000737734
0.00105711
0.00149844
0.00187666
0.001644
0.000646991
0.00068212
0.000765618
0.000857576
0.000929812
0.000963109
0.000968037
0.000964032
0.000943303
0.000928535
0.000906707
0.000887809
0.000868232
0.000848934
0.000831851
0.00082064
0.000807912
0.00079007
0.000772205
0.000755406
0.000739749
0.000725032
0.000711311
0.000698667
0.000687676
0.000677286
0.00066742
0.000658136
0.000649233
0.000640587
0.000631127
0.000621342
0.000612821
0.000605396
0.000599124
0.000594124
0.000589764
0.000587541
0.000586046
0.000585627
0.000590795
0.000590037
0.000596748
0.000630542
0.000667357
0.000759578
0.00110285
0.00151901
0.00189338
0.00162111
0.0028532
0.00112637
0.00073617
0.000685234
0.000725649
0.000769081
0.000794793
0.000809623
0.000813472
0.000815583
0.000799237
0.0007908
0.000778272
0.000765813
0.000756018
0.000751369
0.000744665
0.000734421
0.000723911
0.000713424
0.000703012
0.000692875
0.000683207
0.000673968
0.000665428
0.000657454
0.000649884
0.000642612
0.000635722
0.000629178
0.000622342
0.00061427
0.000607399
0.000601474
0.000596666
0.000592902
0.000589933
0.000588928
0.000588521
0.000589523
0.000595412
0.000596434
0.000609082
0.000643496
0.000682684
0.000785074
0.00114945
0.00154285
0.0019095
0.00159264
0.00580837
0.00234447
0.00113323
0.000713559
0.000618337
0.000617467
0.00063881
0.00066627
0.000682362
0.000695791
0.000699697
0.000704772
0.000701509
0.000699078
0.000699267
0.000694241
0.000687055
0.000680921
0.000675386
0.000669419
0.000663345
0.000657295
0.000651264
0.000645302
0.000639673
0.000634487
0.000629454
0.000624612
0.000619938
0.000615482
0.000610795
0.00060487
0.000599924
0.000595802
0.00059264
0.000590452
0.000589094
0.000589676
0.000590844
0.000594054
0.000601157
0.000604864
0.000624187
0.000658644
0.000701692
0.000817151
0.0012015
0.00156684
0.00192578
0.00155406
0.00777181
0.00411556
0.00219605
0.00122421
0.000772735
0.000595829
0.000546281
0.000547135
0.000562057
0.000581387
0.000594775
0.000606295
0.000613345
0.000618762
0.000624986
0.000624918
0.000625873
0.000627624
0.000626443
0.000624155
0.000621723
0.000619213
0.000616133
0.00061275
0.000609828
0.000607509
0.000605111
0.0006027
0.000600329
0.000598045
0.000595458
0.000592036
0.000589366
0.000587458
0.000586369
0.000586118
0.000586877
0.000589339
0.000592707
0.000598651
0.000607656
0.000615963
0.00064237
0.000677449
0.000726164
0.000863524
0.00125757
0.00159217
0.00193836
0.00150485
0.0088841
0.00587037
0.00373647
0.00235697
0.00147615
0.000952815
0.000673377
0.000549884
0.000505365
0.000496095
0.00050145
0.000512792
0.000524137
0.000534734
0.000544896
0.000551643
0.000557654
0.000564585
0.000567651
0.000569294
0.000571963
0.000574282
0.000574669
0.000574709
0.000575077
0.000575898
0.000576266
0.00057637
0.000576356
0.000576296
0.000575522
0.000575058
0.000575097
0.000575772
0.000577186
0.000579474
0.000582792
0.000587822
0.000594232
0.000603687
0.000615685
0.000631005
0.000662792
0.000698751
0.000761847
0.000932829
0.0013106
0.00161933
0.00194163
0.00144161
0.0095222
0.00728553
0.00536735
0.00385865
0.00272461
0.00189149
0.0013002
0.000911255
0.000677439
0.000550422
0.000492872
0.000470637
0.000466971
0.000469883
0.000477454
0.000485711
0.000493798
0.000502669
0.000509613
0.000514473
0.000520071
0.000525211
0.000528263
0.000531556
0.000535328
0.000539637
0.00054222
0.000544681
0.000546492
0.000548389
0.0005507
0.000553411
0.000556519
0.000560239
0.000564613
0.000570021
0.000576701
0.00058511
0.000595686
0.000609662
0.000626381
0.000650642
0.00068526
0.000727311
0.000814018
0.00102423
0.00135836
0.00164848
0.0019145
0.00137019
0.00990376
0.00832032
0.00677997
0.00540244
0.00421846
0.00322841
0.00243372
0.00180523
0.00133072
0.000988812
0.000757312
0.00061074
0.000528949
0.000481969
0.000458816
0.00044981
0.000448402
0.000451741
0.000457355
0.000463248
0.000469814
0.000476428
0.000482143
0.000487697
0.000493317
0.000498245
0.000501874
0.000506456
0.00051085
0.000515915
0.000521726
0.000527451
0.000533851
0.000541143
0.000549333
0.000558812
0.000569627
0.000582494
0.00059845
0.000618975
0.000642281
0.000672784
0.000713647
0.000772719
0.000885632
0.00112024
0.00139938
0.00168127
0.00183953
0.00130316
0.0101391
0.00903655
0.0078701
0.00672896
0.00565955
0.00468522
0.00381498
0.00306156
0.0024295
0.00190263
0.0014862
0.00116369
0.000920871
0.000745415
0.00062687
0.000547919
0.000495984
0.000464035
0.000446194
0.000437441
0.000434772
0.000435882
0.000438796
0.000442874
0.000447858
0.000453702
0.000459545
0.000466154
0.000473049
0.00048148
0.000489997
0.000499112
0.000509714
0.000521302
0.000534162
0.00054867
0.00056512
0.000584167
0.000606852
0.000634165
0.000666438
0.000706444
0.000759405
0.00083856
0.000974097
0.00120143
0.00144105
0.00170388
0.00170728
0.00125569
0.0102858
0.00950952
0.00864275
0.00774253
0.00684525
0.00597772
0.00515784
0.00439751
0.00370407
0.00308841
0.00256401
0.00210868
0.00172289
0.00140548
0.00115577
0.000954
0.000796532
0.000677848
0.00059264
0.000531319
0.000487979
0.000458418
0.000439954
0.000429655
0.000425099
0.000424734
0.000427469
0.000432961
0.000440582
0.0004507
0.000462522
0.000475712
0.00049067
0.00050731
0.000526114
0.00054692
0.000570181
0.000596748
0.000627444
0.000663361
0.000706219
0.00075862
0.000825165
0.000920069
0.00106483
0.00126321
0.00147437
0.00169686
0.00153612
0.00125364
0.0103751
0.00979629
0.00913754
0.00842717
0.00769113
0.0069514
0.00622569
0.00552808
0.00486871
0.00425593
0.00369042
0.00317569
0.00272179
0.00232374
0.00197447
0.00167129
0.00141169
0.00119727
0.00101747
0.000872565
0.000750949
0.000653319
0.000581773
0.000529145
0.000491154
0.000465987
0.000452297
0.000447892
0.000450527
0.000458736
0.000470904
0.000486372
0.000504707
0.000525643
0.000549156
0.000575282
0.000604533
0.000637408
0.000674724
0.000717969
0.00076919
0.000831344
0.000907067
0.00100742
0.00114362
0.00131011
0.00149451
0.00161486
0.00136966
0.00136648
0.0104182
0.00993261
0.00938497
0.00878607
0.00815891
0.00752065
0.00688486
0.00627256
0.00567817
0.00511279
0.00457941
0.00408028
0.00361656
0.00318931
0.00279921
0.00245259
0.00214728
0.00187198
0.00162559
0.00140842
0.00121835
0.00105544
0.000920546
0.000814793
0.000725215
0.000654267
0.00060778
0.000580183
0.000566733
0.000563181
0.000567161
0.000576898
0.000591521
0.000610039
0.000632206
0.00065805
0.000687717
0.000721426
0.000759863
0.000804681
0.000857416
0.000920742
0.000994586
0.00108628
0.00119995
0.00133717
0.00147151
0.00142585
0.00133938
0.00153898
0.0104118
0.00991379
0.009362
0.00878057
0.00819097
0.00760736
0.0070394
0.0064922
0.0059699
0.00547448
0.00500407
0.00455936
0.00413929
0.00374569
0.00337684
0.00303566
0.00271674
0.00241979
0.00214748
0.00190162
0.00167664
0.00147517
0.00130028
0.00115397
0.00103599
0.000940575
0.000857659
0.000802428
0.000775313
0.000759315
0.000751756
0.000750901
0.000755391
0.000764449
0.000777468
0.000794287
0.000815365
0.000840545
0.000870565
0.000908422
0.000953746
0.00100661
0.00106746
0.00114038
0.00123226
0.00133111
0.00135134
0.00134235
0.00148665
0.00163666
0.0103183
0.00963632
0.00892975
0.0082519
0.00762459
0.00705244
0.00653197
0.00605264
0.00561373
0.00520832
0.00481957
0.00446199
0.00412328
0.00380216
0.00349856
0.00320717
0.00292546
0.00265451
0.00239542
0.00214911
0.00191769
0.00170647
0.00152558
0.00137081
0.00124078
0.00113846
0.00104981
0.00098216
0.000951273
0.000933361
0.000923002
0.000918569
0.000918663
0.000922298
0.000928871
0.000938158
0.000950346
0.000965867
0.000985524
0.00101115
0.00104204
0.00107676
0.00112333
0.00118187
0.00123183
0.00127356
0.00132929
0.00145223
0.00154507
0.00156831
0.00990181
0.00861959
0.00757577
0.00674363
0.00609801
0.0055837
0.00515282
0.00479664
0.00448791
0.00421024
0.00395343
0.003713
0.00348514
0.00326802
0.00305738
0.00284945
0.00264122
0.00243286
0.00222897
0.00203256
0.0018448
0.00166711
0.00150419
0.00136482
0.00125615
0.00116872
0.00109479
0.0010383
0.00101621
0.00100595
0.00100123
0.00100101
0.00100418
0.00101007
0.00101774
0.00102657
0.00103673
0.00104892
0.00106035
0.0010745
0.00109857
0.00112336
0.00115104
0.00118597
0.00122781
0.00129303
0.00134833
0.00137166
0.00136546
0.00134412
0.00742174
0.00519608
0.00422602
0.00365519
0.00331109
0.00304158
0.0028464
0.00270245
0.00257714
0.00246368
0.00235758
0.00225604
0.00215824
0.00207108
0.00198565
0.0018866
0.00177012
0.00164439
0.00152765
0.00143211
0.00133251
0.00123327
0.00113916
0.00105465
0.000986597
0.000939496
0.000902475
0.000876316
0.000874651
0.000879541
0.000885865
0.000891248
0.000896664
0.000907751
0.000921631
0.000936099
0.000947772
0.000963189
0.000972236
0.00097555
0.000979918
0.000984812
0.000987271
0.000986402
0.00098126
0.000987008
0.000986464
0.000969029
0.000949839
0.000926492
0.00067914
0.000631269
0.000574592
0.000529069
0.000491832
0.000462064
0.000431588
0.000407792
0.00039072
0.00037522
0.000361015
0.00034785
0.000335521
0.000323901
0.000312774
0.000301926
0.000291198
0.00028054
0.000270132
0.000260177
0.000250848
0.000242389
0.000235049
0.000229016
0.000224355
0.000220975
0.000218706
0.000217445
0.000217007
0.000217114
0.000217589
0.000218329
0.000219263
0.000220336
0.000221481
0.000222636
0.000223788
0.000224894
0.000225896
0.000226704
0.000227324
0.000227721
0.000227871
0.00022781
0.000227513
0.000227103
0.000226548
0.000226048
0.000225383
0.000224865
)
;

boundaryField
{
    AXIS
    {
        type            empty;
    }
    OUTLET
    {
        type            calculated;
        value           nonuniform List<scalar> 
25
(
0.00170944
0.00170899
0.0017074
0.00170409
0.00169829
0.00168965
0.00167766
0.00166269
0.00164391
0.00162103
0.00159256
0.00155398
0.00150478
0.00144155
0.00137013
0.00130311
0.00125565
0.0012536
0.00136645
0.00153895
0.00163664
0.0015683
0.00134411
0.000926488
0.000224864
)
;
    }
    COFLOW
    {
        type            calculated;
        value           nonuniform List<scalar> 
15
(
0.0106225
0.0106226
0.0106225
0.0106224
0.0106224
0.0106224
0.0106224
0.0106223
0.0106223
0.0106223
0.0106223
0.0106223
0.0106223
0.0106223
0.0106223
)
;
    }
    PILOT
    {
        type            calculated;
        value           nonuniform List<scalar> 5(0.00141095 0.00141098 0.0014111 0.00141114 0.00141117);
    }
    FUEL
    {
        type            calculated;
        value           nonuniform List<scalar> 5(0.0472858 0.0472845 0.0472903 0.0473071 0.0473177);
    }
    WALL
    {
        type            mutkWallFunction;
        Cmu             0.09;
        kappa           0.41;
        E               9.8;
        value           nonuniform List<scalar> 
50
(
8.17822e-05
7.57477e-05
6.85286e-05
6.26641e-05
5.78172e-05
5.39057e-05
4.98653e-05
4.66801e-05
4.43737e-05
4.22641e-05
4.0316e-05
3.84972e-05
3.67812e-05
3.51526e-05
3.35817e-05
3.20396e-05
3.0504e-05
2.89676e-05
2.74544e-05
2.59922e-05
2.46049e-05
2.33273e-05
2.21952e-05
2.12368e-05
2.04636e-05
1.98656e-05
1.94229e-05
1.9126e-05
1.89532e-05
1.88715e-05
1.88625e-05
1.8917e-05
1.90302e-05
1.91971e-05
1.94105e-05
1.96608e-05
1.99443e-05
2.02491e-05
2.05607e-05
2.08522e-05
2.11154e-05
2.13346e-05
2.14974e-05
2.16022e-05
2.16432e-05
2.16392e-05
2.15949e-05
2.15431e-05
2.14551e-05
2.13825e-05
)
;
    }
    front
    {
        type            wedge;
    }
    back
    {
        type            wedge;
    }
}


// ************************************************************************* //
