/*--------------------------------*- C++ -*----------------------------------*\
| =========                 |                                                 |
| \\      /  F ield         | OpenFOAM: The Open Source CFD Toolbox           |
|  \\    /   O peration     | Version:  2.4.x                                 |
|   \\  /    A nd           | Web:      www.OpenFOAM.org                      |
|    \\/     M anipulation  |                                                 |
\*---------------------------------------------------------------------------*/
FoamFile
{
    version     2.0;
    format      ascii;
    class       surfaceScalarField;
    location    "0.09";
    object      phi;
}
// * * * * * * * * * * * * * * * * * * * * * * * * * * * * * * * * * * * * * //

dimensions      [1 0 -1 0 0 0 0];

internalField   nonuniform List<scalar> 
2425
(
1.06635e-06
-1.55492e-08
1.03591e-06
3.04543e-08
9.77191e-07
5.87224e-08
9.10544e-07
6.66526e-08
8.44557e-07
6.59913e-08
7.8239e-07
6.21708e-08
7.28295e-07
5.40991e-08
6.7848e-07
4.98182e-08
6.3241e-07
4.60737e-08
5.87727e-07
4.46867e-08
5.47257e-07
4.04724e-08
5.12411e-07
3.4848e-08
4.79777e-07
3.26363e-08
4.51118e-07
2.86612e-08
4.24736e-07
2.6384e-08
4.01303e-07
2.34349e-08
3.80075e-07
2.12293e-08
3.61435e-07
1.86407e-08
3.44073e-07
1.73635e-08
3.27939e-07
1.6134e-08
3.13376e-07
1.45624e-08
2.99715e-07
1.36609e-08
2.87142e-07
1.25738e-08
2.75711e-07
1.14327e-08
2.64195e-07
1.15178e-08
2.53536e-07
1.06616e-08
2.43649e-07
9.88761e-09
2.34613e-07
9.03549e-09
2.26201e-07
8.41211e-09
2.1849e-07
7.71139e-09
2.11337e-07
7.1537e-09
2.04703e-07
6.63539e-09
1.98644e-07
6.06074e-09
1.93026e-07
5.62128e-09
1.87768e-07
5.26008e-09
1.82828e-07
4.94346e-09
1.78187e-07
4.64545e-09
1.73748e-07
4.43995e-09
1.69551e-07
4.20415e-09
1.65449e-07
4.10148e-09
1.61356e-07
4.09457e-09
1.57251e-07
4.1173e-09
1.5275e-07
4.47885e-09
1.4762e-07
5.1606e-09
1.41466e-07
6.23256e-09
1.32032e-07
9.494e-09
1.20398e-07
1.29256e-08
1.10654e-07
1.41161e-08
1.13969e-07
1.23334e-08
2.42973e-08
3.21216e-06
-7.53914e-08
3.07422e-06
1.68426e-07
2.87674e-06
2.56218e-07
2.67208e-06
2.71328e-07
2.47425e-06
2.63833e-07
2.29568e-06
2.40757e-07
2.13646e-06
2.13329e-07
1.98909e-06
1.97195e-07
1.84782e-06
1.87351e-07
1.71949e-06
1.73029e-07
1.60416e-06
1.55814e-07
1.50162e-06
1.37393e-07
1.40898e-06
1.25284e-07
1.32558e-06
1.12067e-07
1.25044e-06
1.01529e-07
1.18197e-06
9.19121e-08
1.12123e-06
8.19685e-08
1.06648e-06
7.33968e-08
1.01642e-06
6.74282e-08
9.70137e-07
6.24152e-08
9.27171e-07
5.75264e-08
8.87536e-07
5.32939e-08
8.51259e-07
4.8851e-08
8.17844e-07
4.48536e-08
7.85061e-07
4.43091e-08
7.53552e-07
4.21751e-08
7.24737e-07
3.87039e-08
6.98016e-07
3.57558e-08
6.73433e-07
3.29941e-08
6.5056e-07
3.0585e-08
6.29447e-07
2.82695e-08
6.09881e-07
2.62039e-08
5.91921e-07
2.40262e-08
5.75393e-07
2.21589e-08
5.59848e-07
2.08121e-08
5.45295e-07
1.9508e-08
5.31566e-07
1.83875e-08
5.18473e-07
1.7535e-08
5.06077e-07
1.66216e-08
4.93961e-07
1.62163e-08
4.8187e-07
1.61894e-08
4.69712e-07
1.63126e-08
4.56406e-07
1.77198e-08
4.41245e-07
2.04143e-08
4.23058e-07
2.46656e-08
3.95713e-07
3.70224e-08
3.61607e-07
5.08764e-08
3.34624e-07
5.41783e-08
3.44059e-07
4.99215e-08
9.18641e-08
5.25947e-06
-8.03439e-08
4.91774e-06
5.10193e-07
4.54324e-06
6.30748e-07
4.20013e-06
6.14455e-07
3.89402e-06
5.69974e-07
3.61951e-06
5.1528e-07
3.35741e-06
4.75442e-07
3.11506e-06
4.39564e-07
2.89933e-06
4.03097e-07
2.70632e-06
3.66055e-07
2.53294e-06
3.29208e-07
2.37777e-06
2.92569e-07
2.23821e-06
2.64859e-07
2.11191e-06
2.38379e-07
1.99729e-06
2.16147e-07
1.89339e-06
1.95831e-07
1.80016e-06
1.752e-07
1.71578e-06
1.57781e-07
1.63825e-06
1.44963e-07
1.56631e-06
1.34354e-07
1.49962e-06
1.24213e-07
1.43788e-06
1.15029e-07
1.38137e-06
1.05367e-07
1.32986e-06
9.63668e-08
1.27983e-06
9.43603e-08
1.23063e-06
9.13792e-08
1.18469e-06
8.46497e-08
1.14223e-06
7.82132e-08
1.1029e-06
7.23195e-08
1.06637e-06
6.71119e-08
1.03249e-06
6.21596e-08
1.00096e-06
5.77342e-08
9.72055e-07
5.29404e-08
9.45528e-07
4.87026e-08
9.20633e-07
4.57191e-08
8.97223e-07
4.29373e-08
8.75149e-07
4.04833e-08
8.54077e-07
3.86115e-08
8.34082e-07
3.66523e-08
8.14502e-07
3.57926e-08
7.94966e-07
3.57361e-08
7.75297e-07
3.60395e-08
7.53685e-07
3.92293e-08
7.2917e-07
4.50924e-08
6.99716e-07
5.45694e-08
6.56084e-07
8.10751e-08
6.01959e-07
1.11304e-07
5.59683e-07
1.18143e-07
5.76254e-07
1.12126e-07
2.02527e-07
6.93636e-06
3.42231e-07
6.23822e-06
1.20838e-06
5.70276e-06
1.16624e-06
5.2779e-06
1.03935e-06
4.8846e-06
9.63306e-07
4.52399e-06
8.75916e-07
4.20841e-06
7.91041e-07
3.93029e-06
7.17698e-07
3.68141e-06
6.51997e-07
3.45807e-06
5.89414e-07
3.25729e-06
5.30006e-07
3.07569e-06
4.74191e-07
2.9099e-06
4.30663e-07
2.75855e-06
3.89744e-07
2.62074e-06
3.53962e-07
2.49524e-06
3.21349e-07
2.38145e-06
2.89001e-07
2.27704e-06
2.62196e-07
2.18027e-06
2.41742e-07
2.09026e-06
2.24359e-07
2.0065e-06
2.07964e-07
1.9288e-06
1.92735e-07
1.85756e-06
1.76604e-07
1.79215e-06
1.61785e-07
1.73134e-06
1.55198e-07
1.67091e-06
1.51815e-07
1.61087e-06
1.44688e-07
1.55535e-06
1.33737e-07
1.50373e-06
1.23935e-07
1.45577e-06
1.15075e-07
1.41125e-06
1.0668e-07
1.3697e-06
9.9289e-08
1.3312e-06
9.1451e-08
1.29589e-06
8.40321e-08
1.263e-06
7.86329e-08
1.232e-06
7.39633e-08
1.20274e-06
6.97729e-08
1.17475e-06
6.66034e-08
1.14814e-06
6.33106e-08
1.12204e-06
6.18913e-08
1.09599e-06
6.1813e-08
1.06964e-06
6.24679e-08
1.04057e-06
6.81782e-08
1.00766e-06
7.8253e-08
9.68163e-07
9.47617e-08
9.10583e-07
1.39252e-07
8.39395e-07
1.9206e-07
7.83765e-07
2.05953e-07
8.10173e-07
1.97317e-07
3.54322e-07
7.1044e-06
2.70141e-06
6.29917e-06
2.01366e-06
5.88741e-06
1.57803e-06
5.49722e-06
1.42958e-06
5.16867e-06
1.2919e-06
4.87775e-06
1.16687e-06
4.6105e-06
1.05831e-06
4.36456e-06
9.63658e-07
4.13618e-06
8.80412e-07
3.92669e-06
7.9893e-07
3.73452e-06
7.22192e-07
3.55594e-06
6.52792e-07
3.39082e-06
5.9581e-07
3.23724e-06
5.43337e-07
3.09377e-06
4.9744e-07
2.96172e-06
4.53415e-07
2.84081e-06
4.09929e-07
2.72793e-06
3.75085e-07
2.62261e-06
3.47071e-07
2.52395e-06
3.23018e-07
2.43165e-06
3.00256e-07
2.34537e-06
2.79007e-07
2.26567e-06
2.56307e-07
2.19198e-06
2.35489e-07
2.12318e-06
2.24027e-07
2.05823e-06
2.16785e-07
1.99258e-06
2.10343e-07
1.92739e-06
1.98921e-07
1.86689e-06
1.84439e-07
1.81049e-06
1.71468e-07
1.75783e-06
1.5934e-07
1.70862e-06
1.48506e-07
1.66246e-06
1.37627e-07
1.61997e-06
1.26553e-07
1.58091e-06
1.17716e-07
1.54404e-06
1.10868e-07
1.50912e-06
1.04719e-07
1.47565e-06
1.001e-07
1.4437e-06
9.53147e-08
1.41228e-06
9.33169e-08
1.38091e-06
9.32312e-08
1.34894e-06
9.4516e-08
1.31356e-06
1.03446e-07
1.27361e-06
1.18554e-07
1.22559e-06
1.43523e-07
1.15677e-06
2.09201e-07
1.07205e-06
2.89908e-07
1.00609e-06
3.15146e-07
1.04561e-06
3.05871e-07
5.48443e-07
3.30829e-06
-3.27941e-09
4.34745e-06
9.74539e-07
4.69991e-06
1.22561e-06
4.76471e-06
1.36482e-06
4.72674e-06
1.32992e-06
4.63179e-06
1.26186e-06
4.50485e-06
1.18529e-06
4.36518e-06
1.10336e-06
4.22413e-06
1.02149e-06
4.08625e-06
9.36838e-07
3.95051e-06
8.57951e-07
3.8144e-06
7.88933e-07
3.67665e-06
7.33591e-07
3.53841e-06
6.81599e-07
3.40632e-06
6.29531e-07
3.2832e-06
5.76565e-07
3.1688e-06
5.24358e-07
3.05988e-06
4.84019e-07
2.95666e-06
4.5029e-07
2.85899e-06
4.20688e-07
2.76673e-06
3.92503e-07
2.67961e-06
3.66128e-07
2.59795e-06
3.37964e-07
2.52174e-06
3.11721e-07
2.45012e-06
2.95684e-07
2.38275e-06
2.84178e-07
2.31774e-06
2.75377e-07
2.25126e-06
2.65397e-07
2.1853e-06
2.50387e-07
2.1238e-06
2.32965e-07
2.06647e-06
2.16676e-07
2.0126e-06
2.02384e-07
1.96166e-06
1.88586e-07
1.91382e-06
1.74412e-07
1.86979e-06
1.61774e-07
1.82899e-06
1.51712e-07
1.7902e-06
1.43555e-07
1.75287e-06
1.37454e-07
1.7172e-06
1.31058e-07
1.68191e-06
1.28619e-07
1.64661e-06
1.2861e-07
1.61029e-06
1.30932e-07
1.56997e-06
1.43701e-07
1.52454e-06
1.64453e-07
1.4697e-06
1.99206e-07
1.3923e-06
2.88322e-07
1.29795e-06
4.01308e-07
1.22571e-06
4.43947e-07
1.28264e-06
4.30003e-07
7.84558e-07
1.51703e-06
-8.06963e-07
2.61708e-06
-1.25474e-07
3.33842e-06
5.04318e-07
3.76237e-06
9.40928e-07
3.98847e-06
1.10386e-06
4.09127e-06
1.1591e-06
4.12162e-06
1.15497e-06
4.10473e-06
1.12029e-06
4.06058e-06
1.06568e-06
4.00054e-06
9.96903e-07
3.92794e-06
9.30579e-07
3.84571e-06
8.71195e-07
3.75853e-06
8.20814e-07
3.66733e-06
7.72822e-07
3.56932e-06
7.27543e-07
3.46782e-06
6.78094e-07
3.3704e-06
6.21821e-07
3.27574e-06
5.78702e-07
3.18416e-06
5.41867e-07
3.09617e-06
5.08666e-07
3.01171e-06
4.76959e-07
2.93018e-06
4.47647e-07
2.85227e-06
4.1588e-07
2.77899e-06
3.8503e-07
2.70978e-06
3.64929e-07
2.64387e-06
3.50123e-07
2.58115e-06
3.38115e-07
2.51905e-06
3.27515e-07
2.45514e-06
3.14293e-07
2.39232e-06
2.95774e-07
2.33336e-06
2.7564e-07
2.27769e-06
2.58062e-07
2.22485e-06
2.41435e-07
2.17463e-06
2.24673e-07
2.12758e-06
2.0886e-07
2.08417e-06
1.95177e-07
2.04338e-06
1.84393e-07
2.00404e-06
1.76846e-07
1.96622e-06
1.68956e-07
1.92857e-06
1.66317e-07
1.89085e-06
1.66463e-07
1.85159e-06
1.703e-07
1.80787e-06
1.87436e-07
1.75875e-06
2.14211e-07
1.69885e-06
2.60227e-07
1.61539e-06
3.74662e-07
1.51608e-06
5.23594e-07
1.44264e-06
5.88111e-07
1.52192e-06
5.72672e-07
1.06747e-06
9.36598e-07
-9.20394e-07
1.58932e-06
-7.78147e-07
2.29661e-06
-2.0293e-07
2.84677e-06
3.90826e-07
3.22181e-06
7.2886e-07
3.46101e-06
9.19952e-07
3.61258e-06
1.00344e-06
3.70116e-06
1.03174e-06
3.74846e-06
1.01842e-06
3.76662e-06
9.7877e-07
3.76048e-06
9.3675e-07
3.73616e-06
8.95557e-07
3.69939e-06
8.57616e-07
3.65375e-06
8.18489e-07
3.60192e-06
7.7939e-07
3.53814e-06
7.41908e-07
3.46543e-06
6.9458e-07
3.39214e-06
6.52013e-07
3.31863e-06
6.15376e-07
3.24546e-06
5.81827e-07
3.17315e-06
5.4926e-07
3.10221e-06
5.18577e-07
3.03266e-06
4.85435e-07
2.96623e-06
4.51489e-07
2.90364e-06
4.27561e-07
2.84356e-06
4.10235e-07
2.7858e-06
3.95891e-07
2.73012e-06
3.83217e-07
2.67314e-06
3.71283e-07
2.61414e-06
3.54756e-07
2.55712e-06
3.32665e-07
2.50286e-06
3.12328e-07
2.45086e-06
2.9346e-07
2.40107e-06
2.74498e-07
2.35348e-06
2.56518e-07
2.3088e-06
2.39943e-07
2.26742e-06
2.25839e-07
2.22793e-06
2.16413e-07
2.18974e-06
2.07251e-07
2.15144e-06
2.04693e-07
2.11289e-06
2.05201e-07
2.07209e-06
2.11269e-07
2.02668e-06
2.33051e-07
1.97554e-06
2.6619e-07
1.91211e-06
3.2521e-07
1.82532e-06
4.65924e-07
1.72572e-06
6.51707e-07
1.65624e-06
7.43982e-07
1.76407e-06
7.26734e-07
1.40158e-06
7.96031e-07
-7.83486e-07
1.04964e-06
-1.03172e-06
1.60048e-06
-7.53736e-07
2.13975e-06
-1.48405e-07
2.5615e-06
3.07153e-07
2.8752e-06
6.06295e-07
3.10176e-06
7.76914e-07
3.26465e-06
8.68884e-07
3.38154e-06
9.01573e-07
3.46276e-06
8.97582e-07
3.51361e-06
8.8593e-07
3.54136e-06
8.67846e-07
3.55149e-06
8.4752e-07
3.5478e-06
8.22205e-07
3.53336e-06
7.9385e-07
3.50716e-06
7.68153e-07
3.46781e-06
7.33972e-07
3.41972e-06
7.0014e-07
3.36816e-06
6.66936e-07
3.31436e-06
6.35611e-07
3.2592e-06
6.04403e-07
3.20325e-06
5.74523e-07
3.14625e-06
5.42435e-07
3.09066e-06
5.07102e-07
3.0381e-06
4.80157e-07
2.98689e-06
4.61477e-07
2.93713e-06
4.45665e-07
2.88861e-06
4.31736e-07
2.84121e-06
4.18701e-07
2.79084e-06
4.05099e-07
2.73836e-06
3.85135e-07
2.6883e-06
3.62403e-07
2.63984e-06
3.41948e-07
2.59308e-06
3.21321e-07
2.54805e-06
3.01627e-07
2.50451e-06
2.83611e-07
2.46328e-06
2.67231e-07
2.42464e-06
2.55169e-07
2.38765e-06
2.44388e-07
2.35022e-06
2.4228e-07
2.31235e-06
2.43367e-07
2.27139e-06
2.52482e-07
2.22602e-06
2.7891e-07
2.17446e-06
3.18897e-07
2.10921e-06
3.92793e-07
2.02207e-06
5.62233e-07
1.92674e-06
7.8332e-07
1.86628e-06
9.08406e-07
2.00899e-06
8.7763e-07
1.78703e-06
9.55188e-07
-6.96009e-07
9.75988e-07
-1.0525e-06
1.2739e-06
-1.05166e-06
1.67913e-06
-5.53626e-07
2.06727e-06
-8.0955e-08
2.39099e-06
2.82599e-07
2.65116e-06
5.16775e-07
2.8523e-06
6.67772e-07
3.00348e-06
7.50423e-07
3.11549e-06
7.85609e-07
3.19938e-06
8.02072e-07
3.26079e-06
8.06469e-07
3.30478e-06
8.03569e-07
3.33563e-06
7.91376e-07
3.35937e-06
7.70135e-07
3.37454e-06
7.53046e-07
3.37421e-06
7.3438e-07
3.35905e-06
7.1533e-07
3.33569e-06
6.90289e-07
3.30707e-06
6.64222e-07
3.27453e-06
6.36922e-07
3.23942e-06
6.09634e-07
3.20154e-06
5.80317e-07
3.16148e-06
5.47166e-07
3.12121e-06
5.2045e-07
3.08102e-06
5.01677e-07
3.04126e-06
4.85422e-07
3.00203e-06
4.70961e-07
2.96316e-06
4.5756e-07
2.92301e-06
4.45252e-07
2.88019e-06
4.27939e-07
2.83669e-06
4.05911e-07
2.79406e-06
3.84631e-07
2.75226e-06
3.63194e-07
2.71165e-06
3.42368e-07
2.67213e-06
3.23305e-07
2.63364e-06
3.0595e-07
2.59636e-06
2.9276e-07
2.56112e-06
2.7986e-07
2.52608e-06
2.77605e-07
2.49031e-06
2.79566e-07
2.45063e-06
2.92605e-07
2.40688e-06
3.23424e-07
2.35643e-06
3.709e-07
2.29301e-06
4.59518e-07
2.20846e-06
6.59535e-07
2.11974e-06
9.14096e-07
2.07219e-06
1.08008e-06
2.25686e-06
1.03321e-06
2.21688e-06
1.81811e-06
-1.49045e-07
1.53132e-06
-7.6567e-07
1.41635e-06
-9.3674e-07
1.56757e-06
-7.04877e-07
1.8516e-06
-3.65002e-07
2.14751e-06
-1.33113e-08
2.41375e-06
2.50543e-07
2.64293e-06
4.38621e-07
2.83286e-06
5.60515e-07
2.97776e-06
6.40737e-07
3.08752e-06
6.92339e-07
3.17431e-06
7.19703e-07
3.24309e-06
7.34824e-07
3.2973e-06
7.37184e-07
3.34633e-06
7.21133e-07
3.39028e-06
7.09149e-07
3.42047e-06
7.04246e-07
3.43627e-06
6.99549e-07
3.44162e-06
6.84935e-07
3.4389e-06
6.66925e-07
3.42961e-06
6.46198e-07
3.4152e-06
6.24038e-07
3.39584e-06
5.9966e-07
3.3713e-06
5.71701e-07
3.34368e-06
5.48062e-07
3.31497e-06
5.3037e-07
3.28558e-06
5.14783e-07
3.25555e-06
5.00954e-07
3.22507e-06
4.88005e-07
3.19418e-06
4.76118e-07
3.16019e-06
4.61916e-07
3.12335e-06
4.42772e-07
3.08651e-06
4.21538e-07
3.04978e-06
4.00052e-07
3.01356e-06
3.7878e-07
2.97789e-06
3.59243e-07
2.9428e-06
3.41395e-07
2.90815e-06
3.27903e-07
2.87414e-06
3.14437e-07
2.83956e-06
3.12912e-07
2.80472e-06
3.15078e-07
2.76565e-06
3.32475e-07
2.72261e-06
3.67786e-07
2.67198e-06
4.23795e-07
2.60924e-06
5.2861e-07
2.52545e-06
7.61845e-07
2.4426e-06
1.04924e-06
2.41079e-06
1.26797e-06
2.65696e-06
1.20023e-06
2.72301e-06
2.75291e-06
3.39894e-08
2.41583e-06
-4.28486e-07
2.05581e-06
-5.76741e-07
1.90431e-06
-5.53462e-07
1.96962e-06
-4.30446e-07
2.16074e-06
-2.04516e-07
2.39368e-06
1.75751e-08
2.62534e-06
2.0695e-07
2.83295e-06
3.52904e-07
3.01526e-06
4.58446e-07
3.1717e-06
5.3592e-07
3.30304e-06
5.88382e-07
3.41361e-06
6.24276e-07
3.50622e-06
6.44595e-07
3.57901e-06
6.48358e-07
3.63201e-06
6.56132e-07
3.67361e-06
6.6265e-07
3.70981e-06
6.63357e-07
3.7386e-06
6.56127e-07
3.75897e-06
6.46511e-07
3.77176e-06
6.33362e-07
3.77778e-06
6.17962e-07
3.77743e-06
5.99946e-07
3.77032e-06
5.78756e-07
3.75822e-06
5.60103e-07
3.7433e-06
5.45205e-07
3.7263e-06
5.31689e-07
3.70775e-06
5.194e-07
3.68785e-06
5.0782e-07
3.66715e-06
4.96767e-07
3.64302e-06
4.86034e-07
3.61489e-06
4.70947e-07
3.58556e-06
4.50999e-07
3.55527e-06
4.30563e-07
3.52471e-06
4.09685e-07
3.49387e-06
3.90532e-07
3.46303e-06
3.72856e-07
3.43211e-06
3.59607e-07
3.40093e-06
3.46581e-07
3.36847e-06
3.46545e-07
3.33446e-06
3.50524e-07
3.29499e-06
3.73776e-07
3.25215e-06
4.13657e-07
3.20113e-06
4.79227e-07
3.1371e-06
6.02335e-07
3.05168e-06
8.77428e-07
2.97479e-06
1.19694e-06
2.96694e-06
1.47834e-06
3.31568e-06
1.37988e-06
3.33404e-06
3.58278e-06
1.00522e-07
3.31482e-06
-1.60335e-07
2.99367e-06
-2.55511e-07
2.70998e-06
-2.69825e-07
2.53231e-06
-2.52956e-07
2.49836e-06
-1.70759e-07
2.57766e-06
-6.18907e-08
2.72577e-06
5.87437e-08
2.90317e-06
1.75444e-07
3.08382e-06
2.77763e-07
3.25155e-06
3.68164e-07
3.40199e-06
4.37937e-07
3.53733e-06
4.88934e-07
3.65709e-06
5.24821e-07
3.75933e-06
5.46104e-07
3.84663e-06
5.68802e-07
3.92265e-06
5.86606e-07
3.98797e-06
5.97989e-07
4.04196e-06
6.02056e-07
4.08567e-06
6.02679e-07
4.1201e-06
5.9878e-07
4.14631e-06
5.91581e-07
4.16468e-06
5.8137e-07
4.17593e-06
5.67275e-07
4.18298e-06
5.52857e-07
4.18687e-06
5.41095e-07
4.18733e-06
5.31005e-07
4.18517e-06
5.21347e-07
4.18076e-06
5.12061e-07
4.17447e-06
5.02952e-07
4.16433e-06
4.96154e-07
4.14967e-06
4.85708e-07
4.13282e-06
4.68107e-07
4.11419e-06
4.49625e-07
4.09408e-06
4.30405e-07
4.07287e-06
4.12551e-07
4.05082e-06
3.95977e-07
4.02777e-06
3.83997e-07
4.00357e-06
3.7243e-07
3.97736e-06
3.74721e-07
3.94847e-06
3.8179e-07
3.91296e-06
4.12505e-07
3.87367e-06
4.57585e-07
3.82407e-06
5.35457e-07
3.76217e-06
6.79369e-07
3.68022e-06
1.00231e-06
3.61805e-06
1.36126e-06
3.6507e-06
1.7244e-06
4.15502e-06
1.55916e-06
4.08739e-06
4.53345e-06
1.08647e-07
4.36295e-06
1.04629e-08
4.12483e-06
-1.71934e-08
3.86792e-06
-1.28221e-08
3.60972e-06
5.19587e-09
3.39846e-06
4.03574e-08
3.26217e-06
7.41987e-08
3.21353e-06
1.07138e-07
3.23975e-06
1.48991e-07
3.31974e-06
1.97579e-07
3.43361e-06
2.54138e-07
3.56199e-06
3.09433e-07
3.69476e-06
3.56068e-07
3.82303e-06
3.96454e-07
3.93941e-06
4.29581e-07
4.0472e-06
4.60836e-07
4.14752e-06
4.86136e-07
4.23823e-06
5.07098e-07
4.31891e-06
5.21145e-07
4.38991e-06
5.31379e-07
4.45168e-06
5.36637e-07
4.50477e-06
5.3805e-07
4.54915e-06
5.36495e-07
4.58575e-06
5.30144e-07
4.61725e-06
5.2085e-07
4.64472e-06
5.1313e-07
4.66806e-06
5.07186e-07
4.68761e-06
5.01365e-07
4.70406e-06
4.95301e-07
4.71569e-06
4.91154e-07
4.72332e-06
4.88576e-07
4.72843e-06
4.80859e-07
4.73034e-06
4.66759e-07
4.72943e-06
4.51389e-07
4.726e-06
4.35006e-07
4.72017e-06
4.19896e-07
4.71231e-06
4.05699e-07
4.70266e-06
3.96023e-07
4.69029e-06
3.87597e-07
4.6754e-06
3.93071e-07
4.65694e-06
4.04239e-07
4.63038e-06
4.44501e-07
4.59861e-06
4.96642e-07
4.55349e-06
5.91207e-07
4.50019e-06
7.57319e-07
4.43167e-06
1.1329e-06
4.39823e-06
1.53927e-06
4.49872e-06
2.02279e-06
5.24947e-06
1.70515e-06
4.94354e-06
5.66772e-06
9.92062e-08
5.56542e-06
1.13166e-07
5.40257e-06
1.45993e-07
5.21004e-06
1.79938e-07
4.99865e-06
2.16713e-07
4.78025e-06
2.58748e-07
4.56403e-06
2.90279e-07
4.36407e-06
3.06812e-07
4.20118e-06
3.11471e-07
4.09173e-06
3.06574e-07
4.04204e-06
3.03376e-07
4.05198e-06
2.99083e-07
4.10365e-06
3.03997e-07
4.17934e-06
3.20348e-07
4.26997e-06
3.38467e-07
4.36878e-06
3.6148e-07
4.46995e-06
3.84447e-07
4.56793e-06
4.08566e-07
4.6586e-06
4.29771e-07
4.74296e-06
4.46149e-07
4.8224e-06
4.56185e-07
4.89592e-06
4.63411e-07
4.96293e-06
4.68268e-07
5.02506e-06
4.66732e-07
5.08296e-06
4.61811e-07
5.13535e-06
4.59621e-07
5.18306e-06
4.58447e-07
5.22507e-06
4.58566e-07
5.26191e-06
4.57915e-07
5.29604e-06
4.56841e-07
5.32919e-06
4.55702e-07
5.3602e-06
4.50551e-07
5.38752e-06
4.40694e-07
5.41083e-06
4.29749e-07
5.43041e-06
4.17656e-07
5.447e-06
4.06137e-07
5.46049e-06
3.95775e-07
5.47122e-06
3.89569e-07
5.47742e-06
3.86389e-07
5.47986e-06
3.9654e-07
5.47762e-06
4.13406e-07
5.46656e-06
4.64528e-07
5.44782e-06
5.27321e-07
5.41252e-06
6.45176e-07
5.37633e-06
8.32864e-07
5.33499e-06
1.264e-06
5.35061e-06
1.73691e-06
5.55714e-06
2.37906e-06
6.67507e-06
1.82209e-06
5.90626e-06
7.06527e-06
9.06064e-08
7.00789e-06
1.71073e-07
6.90836e-06
2.45993e-07
6.77633e-06
3.12345e-07
6.61833e-06
3.7497e-07
6.44848e-06
4.28729e-07
6.26619e-06
4.72536e-07
6.06626e-06
5.06484e-07
5.85632e-06
5.20968e-07
5.64217e-06
5.2007e-07
5.43848e-06
5.06272e-07
5.2637e-06
4.729e-07
5.13004e-06
4.36539e-07
5.04418e-06
4.04931e-07
5.0082e-06
3.72972e-07
5.01411e-06
3.53945e-07
5.04871e-06
3.48184e-07
5.10534e-06
3.50147e-07
5.17628e-06
3.56753e-07
5.25481e-06
3.65297e-07
5.3365e-06
3.71915e-07
5.41731e-06
3.79806e-07
5.49621e-06
3.86543e-07
5.57137e-06
3.88685e-07
5.64098e-06
3.89347e-07
5.7063e-06
3.91596e-07
5.7694e-06
3.93134e-07
5.8323e-06
3.94067e-07
5.89486e-06
3.9459e-07
5.95707e-06
3.94725e-07
6.01945e-06
3.94274e-07
6.07959e-06
3.92265e-07
6.13678e-06
3.8619e-07
6.19038e-06
3.79687e-07
6.24014e-06
3.72432e-07
6.28552e-06
3.66137e-07
6.32595e-06
3.61506e-07
6.36304e-06
3.59803e-07
6.39574e-06
3.62471e-07
6.42262e-06
3.79578e-07
6.44201e-06
4.05859e-07
6.45207e-06
4.69628e-07
6.45405e-06
5.45059e-07
6.44005e-06
6.91062e-07
6.43124e-06
9.08615e-07
6.41892e-06
1.41132e-06
6.51335e-06
1.98074e-06
6.89512e-06
2.80072e-06
8.58014e-06
1.98003e-06
6.8179e-06
8.81398e-06
8.53466e-08
8.78628e-06
1.99449e-07
8.73095e-06
3.01941e-07
8.65033e-06
3.93481e-07
8.54742e-06
4.78269e-07
8.42361e-06
5.52744e-07
8.28161e-06
6.14515e-07
8.12778e-06
6.60059e-07
7.95763e-06
6.90528e-07
7.76546e-06
7.11235e-07
7.55801e-06
7.12554e-07
7.33398e-06
6.95211e-07
7.10085e-06
6.67408e-07
6.87572e-06
6.27086e-07
6.669e-06
5.75951e-07
6.49249e-06
5.25953e-07
6.352e-06
4.83601e-07
6.25345e-06
4.42902e-07
6.19827e-06
4.05452e-07
6.17989e-06
3.76614e-07
6.19055e-06
3.54169e-07
6.22253e-06
3.40392e-07
6.27008e-06
3.31554e-07
6.32781e-06
3.23714e-07
6.39236e-06
3.17945e-07
6.46335e-06
3.14668e-07
6.53922e-06
3.1278e-07
6.62009e-06
3.10468e-07
6.70524e-06
3.08638e-07
6.79359e-06
3.07311e-07
6.88359e-06
3.06891e-07
6.97344e-06
3.06753e-07
7.06185e-06
3.03485e-07
7.14697e-06
3.01714e-07
7.22866e-06
2.99392e-07
7.30629e-06
2.98144e-07
7.37915e-06
2.9952e-07
7.44753e-06
3.03837e-07
7.50963e-06
3.14136e-07
7.5653e-06
3.39735e-07
7.61165e-06
3.7943e-07
7.64527e-06
4.60692e-07
7.67134e-06
5.52414e-07
7.68525e-06
7.32564e-07
7.70206e-06
9.98408e-07
7.74031e-06
1.58761e-06
8.00179e-06
2.2488e-06
8.68055e-06
3.33647e-06
1.1215e-05
2.24732e-06
7.57486e-06
1.10101e-05
8.01812e-08
1.10023e-05
2.08065e-07
1.09791e-05
3.25943e-07
1.09391e-05
4.34182e-07
1.08827e-05
5.35177e-07
1.08084e-05
6.27378e-07
1.07142e-05
7.08668e-07
1.05989e-05
7.7505e-07
1.04631e-05
8.2532e-07
1.03175e-05
8.55787e-07
1.01589e-05
8.6947e-07
9.97696e-06
8.74373e-07
9.77427e-06
8.66158e-07
9.5555e-06
8.40677e-07
9.31928e-06
8.05116e-07
9.07064e-06
7.65239e-07
8.81975e-06
7.2276e-07
8.5779e-06
6.70287e-07
8.35778e-06
6.0886e-07
8.16457e-06
5.50749e-07
8.00337e-06
4.94471e-07
7.87945e-06
4.42488e-07
7.796e-06
3.93633e-07
7.74862e-06
3.50838e-07
7.73172e-06
3.16209e-07
7.74216e-06
2.88507e-07
7.77736e-06
2.66187e-07
7.83449e-06
2.46691e-07
7.90998e-06
2.30859e-07
7.99996e-06
2.18708e-07
8.09949e-06
2.11693e-07
8.2043e-06
2.08781e-07
8.31147e-06
2.05389e-07
8.41927e-06
2.04547e-07
8.52643e-06
2.04641e-07
8.63024e-06
2.08315e-07
8.73024e-06
2.14681e-07
8.82637e-06
2.24704e-07
8.91585e-06
2.43713e-07
8.99941e-06
2.78975e-07
9.07177e-06
3.37764e-07
9.12924e-06
4.42825e-07
9.18001e-06
5.57607e-07
9.22118e-06
7.84064e-07
9.27941e-06
1.11333e-06
9.44687e-06
1.79585e-06
1.00355e-05
2.53547e-06
1.13667e-05
3.943e-06
1.49322e-05
2.89288e-06
8.28243e-06
1.3766e-05
7.30809e-08
1.37735e-05
2.0167e-07
1.37756e-05
3.24862e-07
1.37686e-05
4.42065e-07
1.37507e-05
5.53752e-07
1.37201e-05
6.58395e-07
1.36744e-05
7.54541e-07
1.36102e-05
8.38808e-07
1.3527e-05
9.07953e-07
1.34225e-05
9.58852e-07
1.32957e-05
9.93689e-07
1.31537e-05
1.01225e-06
1.30014e-05
1.013e-06
1.28332e-05
1.00107e-06
1.26454e-05
9.8178e-07
1.24379e-05
9.57429e-07
1.22189e-05
9.21399e-07
1.19896e-05
8.7628e-07
1.17408e-05
8.26779e-07
1.14806e-05
7.72324e-07
1.12155e-05
7.12761e-07
1.09565e-05
6.47789e-07
1.07164e-05
5.76162e-07
1.05038e-05
5.04389e-07
1.03254e-05
4.35886e-07
1.01901e-05
3.70694e-07
1.01026e-05
3.1042e-07
1.00617e-05
2.55163e-07
1.00601e-05
2.08924e-07
1.00889e-05
1.73808e-07
1.01404e-05
1.49672e-07
1.02082e-05
1.34827e-07
1.02865e-05
1.24498e-07
1.03719e-05
1.1956e-07
1.04612e-05
1.18718e-07
1.05532e-05
1.22408e-07
1.0646e-05
1.30971e-07
1.07385e-05
1.45041e-07
1.08295e-05
1.70833e-07
1.09167e-05
2.18532e-07
1.10014e-05
2.96073e-07
1.10753e-05
4.3579e-07
1.11368e-05
5.90834e-07
1.11966e-05
8.8913e-07
1.1315e-05
1.31331e-06
1.17189e-05
2.11979e-06
1.29489e-05
2.82132e-06
1.58146e-05
4.49748e-06
2.074e-05
3.4711e-06
7.97239e-06
1.72237e-05
6.32294e-08
1.72439e-05
1.82807e-07
1.72672e-05
3.0284e-07
1.72887e-05
4.21755e-07
1.7305e-05
5.38377e-07
1.73135e-05
6.50567e-07
1.73127e-05
7.55626e-07
1.73007e-05
8.51051e-07
1.72736e-05
9.34672e-07
1.72268e-05
1.00425e-06
1.71587e-05
1.05913e-06
1.70698e-05
1.09655e-06
1.69596e-05
1.1159e-06
1.68297e-05
1.12013e-06
1.66861e-05
1.10963e-06
1.65417e-05
1.08204e-06
1.63946e-05
1.046e-06
1.62326e-05
1.00658e-06
1.60503e-05
9.65594e-07
1.5846e-05
9.18459e-07
1.56231e-05
8.6256e-07
1.5378e-05
8.00977e-07
1.51114e-05
7.32939e-07
1.48363e-05
6.55684e-07
1.45631e-05
5.74466e-07
1.43026e-05
4.8795e-07
1.40717e-05
4.01045e-07
1.38835e-05
3.1714e-07
1.3732e-05
2.4614e-07
1.36128e-05
1.89145e-07
1.35249e-05
1.45678e-07
1.34648e-05
1.12929e-07
1.34288e-05
8.9219e-08
1.34125e-05
7.36938e-08
1.34145e-05
6.46145e-08
1.34367e-05
6.39532e-08
1.34717e-05
7.18502e-08
1.35165e-05
8.88765e-08
1.35692e-05
1.24191e-07
1.3628e-05
1.90481e-07
1.36962e-05
2.97716e-07
1.37711e-05
4.83753e-07
1.38443e-05
7.02985e-07
1.3959e-05
1.11483e-06
1.43471e-05
1.62808e-06
1.52977e-05
2.64474e-06
1.78262e-05
3.23894e-06
2.28604e-05
5.19063e-06
2.86049e-05
4.04002e-06
6.84872e-06
2.15621e-05
5.04948e-08
2.15933e-05
1.53368e-07
2.16349e-05
2.62915e-07
2.1682e-05
3.76379e-07
2.17308e-05
4.91264e-07
2.1778e-05
6.04732e-07
2.18211e-05
7.13703e-07
2.18574e-05
8.15443e-07
2.18846e-05
9.07595e-07
2.19003e-05
9.87707e-07
2.19027e-05
1.05454e-06
2.18884e-05
1.10662e-06
2.18548e-05
1.14233e-06
2.18024e-05
1.16144e-06
2.17346e-05
1.1606e-06
2.16579e-05
1.14099e-06
2.15658e-05
1.11123e-06
2.14611e-05
1.07237e-06
2.13548e-05
1.02336e-06
2.12379e-05
9.67101e-07
2.10982e-05
9.0925e-07
2.09315e-05
8.45506e-07
2.07341e-05
7.75985e-07
2.05155e-05
6.97161e-07
2.02694e-05
6.13546e-07
1.99944e-05
5.26803e-07
1.96976e-05
4.3945e-07
1.93984e-05
3.52931e-07
1.91082e-05
2.7978e-07
1.88316e-05
2.20744e-07
1.85756e-05
1.73209e-07
1.83443e-05
1.34948e-07
1.81405e-05
1.05069e-07
1.79661e-05
8.41629e-08
1.78204e-05
7.09258e-08
1.7707e-05
6.7176e-08
1.76194e-05
7.76623e-08
1.75581e-05
1.02021e-07
1.75375e-05
1.66004e-07
1.7561e-05
2.51488e-07
1.76307e-05
4.10508e-07
1.77362e-05
6.53839e-07
1.79561e-05
9.67767e-07
1.84653e-05
1.52157e-06
1.96759e-05
2.10402e-06
2.22416e-05
3.17789e-06
2.71976e-05
3.59502e-06
3.36185e-05
4.98684e-06
3.8344e-05
3.5586e-06
5.73397e-06
2.70071e-05
3.51919e-08
2.70473e-05
1.15511e-07
2.71044e-05
2.08189e-07
2.7174e-05
3.09085e-07
2.72527e-05
4.14752e-07
2.73377e-05
5.21813e-07
2.74262e-05
6.27081e-07
2.75157e-05
7.27529e-07
2.7604e-05
8.20323e-07
2.76889e-05
9.03029e-07
2.77686e-05
9.73874e-07
2.78414e-05
1.03112e-06
2.7906e-05
1.0724e-06
2.79672e-05
1.09653e-06
2.80176e-05
1.10239e-06
2.8051e-05
1.09379e-06
2.80673e-05
1.07218e-06
2.80673e-05
1.03685e-06
2.80491e-05
9.88301e-07
2.80099e-05
9.28761e-07
2.79447e-05
8.64658e-07
2.78682e-05
7.91037e-07
2.77697e-05
7.13745e-07
2.76186e-05
6.36586e-07
2.7408e-05
5.61288e-07
2.71384e-05
4.86928e-07
2.68119e-05
4.16011e-07
2.64447e-05
3.48295e-07
2.60586e-05
2.92712e-07
2.56712e-05
2.49219e-07
2.52953e-05
2.14339e-07
2.4942e-05
1.85655e-07
2.46201e-05
1.63097e-07
2.43347e-05
1.49741e-07
2.40928e-05
1.42707e-07
2.38981e-05
1.48541e-07
2.37538e-05
1.76283e-07
2.36637e-05
2.24557e-07
2.36549e-05
3.2613e-07
2.37626e-05
4.89825e-07
2.39886e-05
6.85075e-07
2.44824e-05
1.00013e-06
2.54703e-05
1.40959e-06
2.72184e-05
2.04504e-06
3.02427e-05
2.58371e-06
3.513e-05
3.44808e-06
4.13582e-05
3.6809e-06
4.65101e-05
4.28815e-06
4.94518e-05
2.76731e-06
4.27682e-06
3.3841e-05
1.9746e-08
3.38865e-05
7.29937e-08
3.39548e-05
1.42826e-07
3.40442e-05
2.22721e-07
3.41529e-05
3.09086e-07
3.4279e-05
3.98648e-07
3.44201e-05
4.88904e-07
3.45734e-05
5.76976e-07
3.47371e-05
6.59038e-07
3.49094e-05
7.3275e-07
3.5088e-05
7.96474e-07
3.52739e-05
8.49122e-07
3.54621e-05
8.87454e-07
3.56493e-05
9.1098e-07
3.58326e-05
9.18174e-07
3.60092e-05
9.11633e-07
3.61763e-05
8.92394e-07
3.63298e-05
8.59081e-07
3.64654e-05
8.11846e-07
3.65899e-05
7.55969e-07
3.66818e-05
6.93194e-07
3.67194e-05
6.30321e-07
3.66859e-05
5.69313e-07
3.65679e-05
5.1578e-07
3.63651e-05
4.64779e-07
3.60969e-05
4.17306e-07
3.5757e-05
3.70428e-07
3.53612e-05
3.3293e-07
3.4942e-05
3.0485e-07
3.45221e-05
2.86977e-07
3.4122e-05
2.73721e-07
3.37592e-05
2.65398e-07
3.34505e-05
2.60687e-07
3.32103e-05
2.6599e-07
3.30511e-05
2.77911e-07
3.2991e-05
3.02828e-07
3.30634e-05
3.56215e-07
3.32619e-05
4.39516e-07
3.3613e-05
5.60678e-07
3.43063e-05
7.62761e-07
3.5459e-05
9.66488e-07
3.722e-05
1.25169e-06
3.97534e-05
1.6522e-06
4.32795e-05
2.15197e-06
4.80884e-05
2.61086e-06
5.32576e-05
2.97213e-06
5.75072e-05
2.83443e-06
6.06494e-05
3.05704e-06
6.24089e-05
1.86399e-06
2.806e-06
4.24217e-05
6.24771e-09
4.24678e-05
3.07062e-08
4.25464e-05
6.80061e-08
4.2659e-05
1.14057e-07
4.28059e-05
1.66215e-07
4.2986e-05
2.22626e-07
4.31968e-05
2.82265e-07
4.34333e-05
3.45829e-07
4.36941e-05
4.0409e-07
4.39797e-05
4.53526e-07
4.42878e-05
4.95356e-07
4.46141e-05
5.30472e-07
4.49538e-05
5.56032e-07
4.53016e-05
5.71755e-07
4.56529e-05
5.75261e-07
4.60049e-05
5.66407e-07
4.63562e-05
5.44086e-07
4.67126e-05
5.08714e-07
4.70561e-05
4.63337e-07
4.73715e-05
4.1764e-07
4.76359e-05
3.77508e-07
4.78233e-05
3.51397e-07
4.79117e-05
3.36337e-07
4.78926e-05
3.29119e-07
4.77696e-05
3.22146e-07
4.75616e-05
3.15647e-07
4.72862e-05
3.06086e-07
4.69693e-05
3.02243e-07
4.66493e-05
3.02128e-07
4.6357e-05
3.05695e-07
4.61209e-05
3.1338e-07
4.59685e-05
3.23098e-07
4.59261e-05
3.36359e-07
4.60253e-05
3.55076e-07
4.62939e-05
3.80071e-07
4.67067e-05
4.14887e-07
4.73442e-05
4.62062e-07
4.83753e-05
5.39005e-07
4.97546e-05
6.23632e-07
5.16119e-05
7.20902e-07
5.42311e-05
8.45921e-07
5.74922e-05
9.91759e-07
6.12288e-05
1.17019e-06
6.51681e-05
1.40235e-06
6.9027e-05
1.45693e-06
7.2347e-05
1.59532e-06
7.50628e-05
1.27065e-06
7.71363e-05
1.55825e-06
7.82964e-05
9.46913e-07
1.36369e-06
5.31961e-05
5.32316e-05
5.33045e-05
5.34236e-05
5.3595e-05
5.38231e-05
5.41114e-05
5.44638e-05
5.48752e-05
5.5337e-05
5.58419e-05
5.63839e-05
5.69547e-05
5.75451e-05
5.81417e-05
5.87323e-05
5.9303e-05
5.98368e-05
6.03206e-05
6.07505e-05
6.11273e-05
6.14606e-05
6.17589e-05
6.20309e-05
6.22827e-05
6.25269e-05
6.27758e-05
6.30524e-05
6.33864e-05
6.38084e-05
6.43462e-05
6.50222e-05
6.58569e-05
6.68728e-05
6.8087e-05
6.95135e-05
7.11643e-05
7.30336e-05
7.50965e-05
7.72998e-05
7.95963e-05
8.19236e-05
8.42366e-05
8.65349e-05
8.86232e-05
9.06231e-05
9.21542e-05
9.38294e-05
9.48105e-05
)
;

boundaryField
{
    AXIS
    {
        type            empty;
        value           nonuniform 0();
    }
    OUTLET
    {
        type            calculated;
        value           nonuniform List<scalar> 
25
(
1.27141e-07
3.88776e-07
6.5239e-07
9.19032e-07
1.18917e-06