/*--------------------------------*- C++ -*----------------------------------*\
| =========                 |                                                 |
| \\      /  F ield         | OpenFOAM: The Open Source CFD Toolbox           |
|  \\    /   O peration     | Version:  2.4.x                                 |
|   \\  /    A nd           | Web:      www.OpenFOAM.org                      |
|    \\/     M anipulation  |                                                 |
\*---------------------------------------------------------------------------*/
FoamFile
{
    version     2.0;
    format      ascii;
    class       volScalarField;
    location    "0.09";
    object      rho;
}
// * * * * * * * * * * * * * * * * * * * * * * * * * * * * * * * * * * * * * //

dimensions      [1 -3 0 0 0 0 0];

internalField   nonuniform List<scalar> 
1250
(
1.00246
0.892588
0.800581
0.729041
0.670855
0.623118
0.583116
0.549029
0.518225
0.485953
0.457308
0.432393
0.409558
0.388684
0.369882
0.352444
0.337035
0.323682
0.311357
0.299849
0.289091
0.278984
0.269536
0.261566
0.253404
0.245367
0.237919
0.231077
0.224726
0.2189
0.213499
0.208511
0.204007
0.20007
0.196437
0.1931
0.19005
0.187199
0.184593
0.182188
0.179897
0.17787
0.175877
0.174019
0.172928
0.17191
0.172642
0.18999
0.251504
0.430954
0.994982
0.875841
0.783908
0.713653
0.657462
0.61194
0.574092
0.541899
0.50836
0.477132
0.449586
0.42559
0.403477
0.38344
0.365187
0.348248
0.333368
0.320433
0.308408
0.297194
0.286665
0.276783
0.26755
0.25976
0.252194
0.244261
0.236939
0.23018
0.223932
0.218181
0.212851
0.207929
0.203452
0.199565
0.195983
0.192694
0.189682
0.186871
0.184301
0.181929
0.179669
0.177673
0.175702
0.173874
0.172801
0.171828
0.17277
0.190299
0.252144
0.431929
0.972389
0.832015
0.742269
0.676878
0.626965
0.588165
0.553256
0.518192
0.486514
0.458023
0.43288
0.410843
0.390611
0.372158
0.355025
0.339261
0.325531
0.313417
0.302089
0.291461
0.281452
0.272076
0.2633
0.255926
0.24921
0.241865
0.234791
0.228221
0.222185
0.21659
0.211417
0.206645
0.202239
0.198457
0.194998
0.191814
0.188885
0.186166
0.183668
0.181368
0.179165
0.177236
0.175314
0.173561
0.172525
0.171648
0.173059
0.191022
0.253709
0.434396
0.909758
0.747288
0.669462
0.620764
0.581761
0.544217
0.511262
0.481966
0.455061
0.430502
0.409023
0.390026
0.372307
0.355839
0.340589
0.326513
0.314328
0.303351
0.292961
0.283171
0.273979
0.265331
0.257275
0.250452
0.244254
0.238411
0.231643
0.225403
0.219622
0.214269
0.20934
0.20479
0.200567
0.196847
0.193556
0.190512
0.18772
0.185126
0.182743
0.180539
0.178444
0.176604
0.174775
0.173122
0.172136
0.171436
0.173581
0.192204
0.256235
0.438426
0.725237
0.598483
0.57012
0.537718
0.510092
0.485491
0.46185
0.439319
0.41795
0.397973
0.380886
0.365117
0.350357
0.33657
0.323501
0.31112
0.300703
0.290964
0.281774
0.273066
0.264881
0.25717
0.249921
0.24375
0.238154
0.232885
0.227682
0.221796
0.21637
0.21136
0.206719
0.202415
0.198454
0.194804
0.191711
0.188863
0.186245
0.183812
0.181573
0.179495
0.177543
0.175817
0.174105
0.172596
0.171694
0.171215
0.174308
0.193828
0.259789
0.444013
0.336993
0.428857
0.448437
0.444472
0.433241
0.419829
0.405008
0.389529
0.374865
0.361336
0.34985
0.338482
0.327471
0.3159
0.304818
0.294387
0.285678
0.277378
0.269457
0.261925
0.254839
0.248129
0.241783
0.236263
0.231339
0.22663
0.222172
0.217613
0.212589
0.207927
0.203651
0.199696
0.196024
0.19262
0.189574
0.186944
0.184538
0.182285
0.180225
0.178311
0.176523
0.174936
0.173367
0.172035
0.171255
0.171042
0.175264
0.195923
0.264275
0.451228
0.218187
0.318434
0.360446
0.372446
0.372687
0.365953
0.356917
0.34685
0.336399
0.327055
0.318668
0.310257
0.302041
0.294042
0.286155
0.277696
0.270461
0.263518
0.25686
0.250501
0.244531
0.2388
0.233288
0.228418
0.224167
0.220074
0.216158
0.212415
0.208434
0.204223
0.200322
0.196706
0.193356
0.190256
0.187396
0.184886
0.182691
0.180658
0.178789
0.177057
0.175447
0.174024
0.17263
0.171498
0.170896
0.171025
0.176525
0.198601
0.269735
0.46011
0.188038
0.279623
0.32044
0.331152
0.33284
0.32751
0.320355
0.312614
0.304678
0.298102
0.291913
0.285695
0.279509
0.273512
0.267667
0.262256
0.256312
0.250565
0.245011
0.239687
0.234578
0.229678
0.22497
0.220652
0.217003
0.213521
0.210163
0.206944
0.203849
0.200352
0.196869
0.193638
0.19063
0.187839
0.185264
0.182879
0.180825
0.179022
0.177372
0.17584
0.174441
0.173188
0.171999
0.171099
0.170699
0.171243
0.178159
0.201852
0.276059
0.470884
0.193293
0.287209
0.320207
0.319041
0.311942
0.304904
0.296414
0.28867
0.281554
0.276069
0.270883
0.265847
0.260932
0.2562
0.251579
0.247449
0.24339
0.238606
0.233953
0.229488
0.225226
0.221114
0.217143
0.213382
0.210296
0.207347
0.204492
0.201764
0.199115
0.196577
0.193479
0.190619
0.187967
0.185498
0.183232
0.181126
0.179173
0.177501
0.176074
0.174751
0.173562
0.172503
0.171537
0.170901
0.170729
0.171801
0.180192
0.205748
0.283231
0.483472
0.264867
0.368574
0.374472
0.338636
0.31466
0.297869
0.285535
0.275326
0.266839
0.259595
0.253495
0.248166
0.24336
0.239077
0.235192
0.232723
0.230284
0.226782
0.22315
0.219666
0.216307
0.213061
0.209962
0.206987
0.204359
0.201855
0.199426
0.19711
0.194872
0.192714
0.190358
0.18786
0.185545
0.183397
0.181404
0.17958
0.177891
0.176352
0.175007
0.173905
0.172934
0.172089
0.171369
0.170996
0.171126
0.173076
0.182686
0.21036
0.291182
0.497832
0.762915
0.594339
0.50068
0.407361
0.347092
0.312233
0.289754
0.273752
0.263098
0.254255
0.24606
0.239141
0.233447
0.228487
0.224264
0.222004
0.219902
0.217114
0.214307
0.211597
0.208974
0.206413
0.203952
0.201559
0.199308
0.19717
0.195129
0.193158
0.191249
0.189415
0.187596
0.185435
0.183448
0.181597
0.179901
0.178336
0.176921
0.17563
0.1745
0.173495
0.17268
0.172052
0.171618
0.17151
0.172028
0.174911
0.185752
0.215896
0.300219
0.514323
1.02433
0.82511
0.690277
0.550274
0.436964
0.363575
0.318068
0.290833
0.271836
0.258126
0.248306
0.240208
0.233697
0.228241
0.223821
0.219613
0.215502
0.211976
0.209075
0.206409
0.203951
0.201619
0.199409
0.197308
0.195331
0.193478
0.191703
0.190004
0.188378
0.186821
0.185324
0.183512
0.181837
0.180287
0.178867
0.177581
0.176414
0.175398
0.174514
0.173748
0.173167
0.172716
0.172572
0.172796
0.173836
0.177629
0.189853
0.222733
0.311312
0.534615
1.11325
0.976998
0.862724
0.735347
0.60176
0.485665
0.399021
0.341924
0.305317
0.281057
0.263867
0.250542
0.240512
0.232648
0.226291
0.220916
0.216343
0.212368
0.208835
0.205626
0.20273
0.200062
0.197594
0.195267
0.193244
0.191502
0.189853
0.188292
0.186821
0.185436
0.184092
0.18254
0.181111
0.179832
0.178678
0.177638
0.176747
0.175983
0.175361
0.174867
0.174556
0.174395
0.174597
0.175186
0.176795
0.181756
0.195527
0.231835
0.325806
0.561216
1.14455
1.06087
0.974777
0.883892
0.778941
0.667502
0.559127
0.46545
0.394217
0.342388
0.306875
0.281765
0.263578
0.250131
0.239531
0.230973
0.224149
0.218346
0.213469
0.209224
0.205531
0.202256
0.199314
0.196622
0.194364
0.192426
0.190675
0.189049
0.187549
0.186175
0.184672
0.183292
0.182048
0.180969
0.18002
0.179211
0.178525
0.178003
0.177622
0.177399
0.177359
0.177537
0.178084
0.179077
0.181417
0.187877
0.20371
0.244585
0.345504
0.597371
1.158
1.10428
1.04517
0.978511
0.906317
0.825832
0.739052
0.648221
0.55927
0.479473
0.413624
0.363548
0.326888
0.298967
0.278043
0.261969
0.249373
0.239213
0.230792
0.223537
0.217539
0.212432
0.208033
0.2042
0.201189
0.19852
0.196145
0.194011
0.19195
0.190084
0.188443
0.187047
0.185835
0.184826
0.183949
0.18326
0.182742
0.182397
0.182237
0.182232
0.182464
0.182942
0.183883
0.18535
0.188681
0.196849
0.215725
0.262626
0.37343
0.646105
1.16508
1.12867
1.08756
1.04146
0.989328
0.930767
0.870994
0.803602
0.733126
0.659986
0.58796
0.520191
0.459044
0.407276
0.365571
0.332843
0.307213
0.286844
0.270695
0.257541
0.246791
0.237768
0.23015
0.223793
0.218367
0.213541
0.209331
0.205709
0.202691
0.200084
0.197933
0.196094
0.194552
0.19333
0.192335
0.191607
0.191025
0.190672
0.190587
0.190707
0.191118
0.191885
0.193189
0.195346
0.199999
0.210224
0.232722
0.288358
0.415594
0.710759
1.1694
1.14374
1.11449
1.08168
1.04501
1.00403
0.958287
0.909321
0.859695
0.805331
0.749312
0.693542
0.635696
0.578324
0.523423
0.472571
0.427373
0.388482
0.355962
0.329207
0.307433
0.289597
0.274773
0.262483
0.252191
0.243578
0.236343
0.23025
0.225151
0.220888
0.217367
0.214368
0.211935
0.209923
0.208281
0.207009
0.206036
0.205388
0.205046
0.204959
0.205358
0.206295
0.207896
0.210825
0.216989
0.229345
0.258402
0.326262
0.480417
0.79301
1.17234
1.15384
1.13269
1.10892
1.08242
1.05303
1.02057
0.984848
0.945717
0.904577
0.866015
0.824564
0.780385
0.734692
0.688915
0.641752
0.594934
0.548729
0.505047
0.464338
0.427359
0.394498
0.366054
0.341921
0.321579
0.304376
0.290029
0.278127
0.268289
0.260198
0.253535
0.24791
0.243212
0.23923
0.236014
0.233332
0.231132
0.229469
0.228279
0.227545
0.227623
0.228456
0.23031
0.234121
0.242083
0.258607
0.298205
0.384669
0.580847
0.887538
1.17447
1.16104
1.14567
1.1283
1.10888
1.08736
1.06363
1.03763
1.00968
0.980201
0.948602
0.914903
0.881832
0.848753
0.813744
0.777017
0.738769
0.702168
0.664084
0.624878
0.585594
0.546523
0.508899
0.473566
0.441105
0.412083
0.386882
0.36538
0.347214
0.33195
0.318938
0.307849
0.298344
0.290161
0.283163
0.277175
0.272189
0.268129
0.264939
0.262733
0.261838
0.26257
0.264796
0.269839
0.281127
0.306201
0.362842
0.481461
0.723834
0.996432
1.17609
1.16643
1.1553
1.14264
1.12839
1.11249
1.09491
1.07611
1.05581
1.03399
1.01064
0.98577
0.959354
0.931393
0.90188
0.873308
0.846507
0.818366
0.788508
0.756932
0.723953
0.69008
0.654876
0.619139
0.583728
0.548978
0.516011
0.48611
0.459297
0.435297
0.414116
0.395381
0.379015
0.364648
0.35224
0.341665
0.332839
0.325575
0.319836
0.315897
0.314068
0.314943
0.31832
0.326524
0.345325
0.387477
0.474556
0.644193
0.890259
1.08109
1.17735
1.17058
1.16268
1.1536
1.14333
1.13184
1.11913
1.10519
1.09005
1.07373
1.05622
1.03755
1.0177
0.996665
0.974404
0.952323
0.929345
0.905117
0.880225
0.856192
0.830293
0.802432
0.772621
0.741684
0.709796
0.676883
0.643622
0.610972
0.579972
0.551077
0.524467
0.500274
0.47846
0.459066
0.442003
0.427188
0.414817
0.404608
0.396781
0.392443
0.391675
0.394674
0.402639
0.42097
0.459397
0.532221
0.666001
0.858382
1.04075
1.13445
1.17839
1.17392
1.1686
1.16235
1.15511
1.14689
1.13767
1.12746
1.11629
1.10418
1.09113
1.07714
1.06224
1.04666
1.03106
1.01467
0.997382
0.979047
0.959473
0.938418
0.915609
0.891633
0.867905
0.842458
0.814614
0.784783
0.753771
0.722244
0.691221
0.661769
0.634315
0.609146
0.586425
0.566254
0.548696
0.533817
0.521787
0.512723
0.507174
0.50641
0.510712
0.521843
0.545822
0.587813
0.656796
0.762994
0.904682
1.04372
1.12562
1.16259
1.17923
1.17658
1.17323
1.16913
1.16425
1.15859
1.15214
1.14491
1.13692
1.12818
1.11871
1.10872
1.09843
1.0876
1.07622
1.06424
1.05156
1.03805
1.02352
1.00819
0.992162
0.974305
0.95418
0.931573
0.906595
0.879971
0.852801
0.824738
0.796951
0.770451
0.745842
0.723592
0.703956
0.687372
0.674062
0.664217
0.658381
0.657195
0.659712
0.668659
0.687674
0.717853
0.762434
0.824118
0.904351
1.00071
1.08364
1.13647
1.16325
1.17488
1.17991
1.1787
1.17684
1.17443
1.17146
1.16792
1.16379
1.15915
1.15404
1.14842
1.14233
1.13577
1.12877
1.12136
1.11356
1.10536
1.09669
1.08801
1.07874
1.06863
1.05738
1.04459
1.02985
1.01285
0.993616
0.972322
0.949913
0.926954
0.904377
0.883299
0.864474
0.848278
0.835265
0.825938
0.820788
0.819744
0.822167
0.831309
0.847849
0.870632
0.902856
0.945882
0.995552
1.04731
1.09496
1.13227
1.15696
1.17035
1.17652
1.17913
1.18024
1.17996
1.17942
1.17858
1.17745
1.17599
1.17422
1.17214
1.16973
1.16699
1.16393
1.16059
1.15701
1.15331
1.14939
1.14529
1.14102
1.13647
1.13149
1.12592
1.11961
1.1124
1.10415
1.09483
1.08453
1.0735
1.06215
1.05092
1.04035
1.03111
1.02378
1.01887
1.01677
1.01781
1.02222
1.03006
1.04129
1.05558
1.07249
1.09071
1.10938
1.12728
1.14325
1.15631
1.16603
1.17246
1.17661
1.179
1.17984
1.18012
)
;

boundaryField
{
    AXIS
    {
        type            empty;
    }
    OUTLET
    {
        type            calculated;
        value           nonuniform List<scalar> 
25
(
0.430925
0.431901
0.434368
0.4384
0.443987
0.451201
0.460084
0.470857
0.483445
0.497805
0.514296
0.534588
0.561188
0.597344
0.646078
0.710732
0.792982
0.887511
0.99641
1.08107
1.13443
1.16258
1.17488
1.17912
1.18012
)
;
    }
    COFLOW
    {
        type            calculated;
        value           nonuniform List<scalar> 
15
(
1.18028
1.18029
1.18027
1.18027
1.18027
1.18026
1.18026
1.18026
1.18026
1.18026
1.18026
1.18026
1.18026
1.18026
1.18026
)
;
    }
    PILOT
    {
        type            calculated;
        value           nonuniform List<scalar> 5(0.156772 0.156775 0.156789 0.156793 0.156797);
    }
    FUEL
    {
        type            calculated;
        value           nonuniform List<scalar> 5(1.0508 1.05077 1.05089 1.05127 1.0515);
    }
    WALL
    {
        type            calculated;
        value           nonuniform List<scalar> 
50
(
1.18024
1.17996
1.17942
1.17858
1.17745
1.17599
1.17422
1.17214
1.16973
1.16699
1.16393
1.16059
1.15701
1.15331
1.14939
1.14529
1.14102
1.13647
1.13149
1.12592
1.11961
1.1124
1.10415
1.09483
1.08453
1.0735
1.06215
1.05092
1.04035
1.03111
1.02378
1.01887
1.01677
1.01781
1.02222
1.03006
1.04129
1.05558
1.07249
1.09071
1.10938
1.12728
1.14325
1.15631
1.16603
1.17246
1.17661
1.179
1.17984
1.18012
)
;
    }
    front
    {
        type            wedge;
    }
    back
    {
        type            wedge;
    }
}


// ************************************************************************* //
