/*--------------------------------*- C++ -*----------------------------------*\
| =========                 |                                                 |
| \\      /  F ield         | OpenFOAM: The Open Source CFD Toolbox           |
|  \\    /   O peration     | Version:  2.4.x                                 |
|   \\  /    A nd           | Web:      www.OpenFOAM.org                      |
|    \\/     M anipulation  |                                                 |
\*---------------------------------------------------------------------------*/
FoamFile
{
    version     2.0;
    format      ascii;
    class       volScalarField;
    location    "0.09";
    object      T;
}
// * * * * * * * * * * * * * * * * * * * * * * * * * * * * * * * * * * * * * //

dimensions      [0 0 0 1 0 0 0];

internalField   nonuniform List<scalar> 
1250
(
308.11
345.552
385.193
423.072
459.978
495.549
530.004
563.454
597.495
637.372
677.48
716.733
756.883
797.706
838.432
880.062
920.42
958.494
996.54
1034.88
1073.51
1112.54
1151.71
1187.06
1225.15
1264.88
1304.15
1342.54
1380.34
1417.08
1453.08
1488.15
1521.5
1552.18
1581.81
1610.27
1637.42
1663.91
1689.17
1713.41
1737.59
1759.75
1782.48
1804.86
1819.44
1836.9
1847.21
1716.6
1329.05
792.794
310.401
352.138
393.382
432.244
469.472
504.823
538.655
571.287
609.295
649.375
689.356
728.444
768.558
808.905
849.513
890.973
930.865
968.549
1006.41
1044.48
1082.96
1121.76
1160.64
1195.71
1231.65
1271.23
1310.17
1348.4
1385.88
1422.41
1458.17
1492.98
1526.33
1556.79
1586.16
1614.36
1641.3
1667.54
1692.56
1716.57
1740.52
1762.43
1784.99
1807.09
1821.5
1838.5
1846.57
1714.26
1325.87
791.054
317.597
370.606
415.476
455.945
492.777
525.971
559.804
598.013
637.214
677.063
716.587
755.247
794.565
834.15
874.555
915.324
954.042
991.013
1028.26
1065.85
1103.86
1142.04
1180.28
1214.55
1247.59
1285.21
1323.56
1361.38
1398.2
1434.3
1469.52
1503.75
1536.97
1566.98
1595.69
1623.3
1649.76
1675.41
1699.95
1723.45
1746.99
1768.35
1790.54
1811.93
1825.98
1842.04
1845.12
1708.82
1318.15
786.684
339.394
412.484
460.963
498.087
532.428
569.699
606.87
644.102
682.427
721.526
759.598
796.806
834.894
873.672
912.902
952.368
989.348
1025.21
1061.63
1098.41
1135.36
1172.49
1209.37
1242.56
1274.4
1305.99
1343.7
1380.57
1416.71
1452.04
1486.34
1519.63
1552.07
1582.08
1609.88
1636.7
1662.33
1687.17
1710.91
1733.75
1756.43
1777.06
1798.48
1818.92
1832.46
1846.77
1842.06
1699.91
1305.87
779.648
424.998
515.344
543.359
577.327
609.467
640.944
674.131
708.923
745.247
782.656
817.861
853.273
889.315
925.851
963.27
1001.52
1036.18
1070.85
1105.79
1141.07
1176.39
1211.75
1247.04
1278.84
1309.17
1339.13
1370.01
1405.97
1440.97
1475.02
1508.2
1540.49
1571.66
1601.72
1628.43
1654.07
1678.6
1702.35
1725.07
1746.99
1768.5
1788.17
1808.6
1827.61
1840.32
1852.38
1837.6
1687.77
1288.96
770.104
920.351
726.441
696.393
703.377
721.973
745.114
772.288
802.797
834.092
865.325
893.848
923.894
954.938
989.649
1025.32
1061.36
1093.55
1126.14
1159.14
1192.39
1225.54
1258.72
1291.84
1322.2
1350.6
1378.97
1407.03
1436.72
1470.33
1503.12
1534.69
1565.28
1594.97
1623.73
1650.62
1674.89
1697.98
1720.47
1741.84
1762.49
1782.61
1801.07
1820.23
1837.44
1848.91
1858.22
1831.46
1672.25
1268.24
758.116
1464.88
995.696
878.068
848.585
847.056
861.661
882.542
907.314
934.755
960.85
985.66
1011.98
1039.18
1067.17
1096.31
1129.15
1158.97
1189.17
1219.72
1250.47
1280.89
1311.58
1342.56
1371.28
1397.47
1423.72
1449.87
1475.84
1504.14
1534.9
1564.72
1593.61
1621.53
1648.48
1674.38
1698.1
1719.72
1740.54
1760.41
1779.57
1798.13
1815.1
1832.63
1847.74
1857.36
1863.03
1822.82
1652.57
1243.88
743.855
1739.29
1158
1005.09
968.03
959.681
972.495
991.81
1014.36
1039.08
1060.67
1082.05
1104.66
1128.33
1152.41
1177.05
1201.01
1228.19
1255.73
1283.67
1311.74
1339.97
1368.32
1396.82
1424.12
1448.16
1471.96
1495.75
1519.38
1542.9
1569.8
1597.41
1624.11
1649.98
1674.96
1698.93
1721.99
1742.71
1761.7
1779.74
1797.15
1813.72
1829.09
1844.59
1857.21
1864.68
1865.88
1811
1629.09
1216.81
727.253
1712.01
1152.78
1026.09
1021.59
1038.18
1057.01
1082.99
1108.51
1133.59
1153.82
1173.97
1194.58
1215.7
1236.99
1258.75
1279.06
1299.71
1324.78
1350.31
1375.88
1401.35
1426.97
1452.76
1478.17
1499.83
1521.23
1542.63
1563.75
1584.92
1605.87
1631.31
1655.73
1679.25
1701.99
1723.67
1744.57
1764.68
1782.66
1798.71
1814.2
1828.71
1842.15
1855.35
1865.03
1870.04
1865.52
1795.8
1601.56
1187.49
708.761
1272.23
917.61
896.039
979.843
1045.12
1096.35
1137.44
1174.36
1207.38
1237.38
1263.89
1288.23
1311.17
1332.47
1352.75
1366.21
1380
1400.18
1421.95
1443.65
1465.39
1487.22
1508.84
1530.33
1549.83
1568.96
1588.09
1606.88
1625.58
1644.15
1664.59
1686.57
1707.68
1727.98
1747.51
1766.05
1783.85
1800.71
1816.07
1829.38
1841.66
1852.88
1863.4
1870.09
1871.81
1857.92
1776.74
1569.91
1156.61
688.771
452.711
577.681
681.033
828.903
963.264
1061.34
1135.7
1195.21
1238.05
1276.4
1314.97
1349.26
1378.82
1405.79
1429.77
1442.44
1454.7
1471.66
1489.46
1507.28
1525.16
1543.26
1561.21
1579.24
1596.68
1613.69
1630.41
1647.01
1663.53
1679.84
1696.39
1715.87
1734.43
1752.32
1769.3
1785.53
1800.77
1815.21
1828.41
1840.71
1851.28
1860.17
1867.48
1871.12
1868.64
1844.99
1753.07
1533.26
1123.38
667.155
338.293
418.648
498.448
621.692
776.956
926.195
1050.71
1140.8
1213.7
1272.17
1317.37
1357.29
1391.22
1421.1
1446.3
1471.51
1497.08
1519.44
1538.28
1556.22
1573.33
1590.14
1606.6
1622.74
1638.45
1653.58
1668.48
1683.13
1697.54
1711.69
1725.65
1742.33
1758.22
1773.44
1787.87
1801.42
1814.18
1825.79
1836.39
1846.07
1854.01
1860.88
1864.84
1864.71
1856.73
1824.09
1721.38
1490.03
1085.09
642.344
311.515
354.385
400.525
468.554
570.218
702.83
849.903
985.246
1096.73
1184.81
1256.02
1317.39
1367.52
1409.4
1445.07
1476.68
1504.66
1529.91
1553.18
1575.05
1595.45
1614.86
1633.38
1651.41
1667.55
1681.84
1695.72
1709.21
1722.27
1734.85
1747.32
1761.65
1775.24
1787.83
1799.59
1810.59
1820.43
1829.28
1836.97
1843.58
1848.45
1852.03
1852.01
1847.89
1834.23
1790.9
1678.26
1435.79
1038.82
612.474
303.076
326.695
355.146
391.106
442.931
515.495
613.224
733.396
861.655
986.725
1095.29
1187.32
1263.95
1327.1
1381.35
1428.4
1468.1
1503.61
1534.79
1563.02
1588.46
1611.82
1633.47
1653.92
1671.56
1687.1
1701.49
1715.19
1728.15
1740.3
1753.58
1766.1
1777.67
1788.07
1797.54
1805.94
1813.39
1819.47
1824.37
1827.86
1829.64
1829.43
1825.6
1817.39
1797.02
1741.52
1618.36
1365.71
981.852
576.046
299.591
313.999
331.536
353.827
381.624
418.275
466.611
530.839
613.562
713.25
823.597
933.246
1033.85
1125.96
1206.31
1276.11
1336.55
1389.52
1436.61
1479.78
1517.41
1550.97
1581.11
1608.36
1630.46
1650.63
1669.03
1686
1702.6
1717.96
1731.78
1743.82
1754.53
1763.72
1771.92
1778.65
1783.97
1787.84
1790.14
1791.08
1789.88
1786.49
1778.77
1766.4
1738.1
1671.64
1536.33
1277.07
910.939
533.284
297.791
307.289
318.772
332.715
350.033
371.78
396.962
429.795
470.502
521.804
584.567
659.138
744.843
836.925
929.413
1017.56
1099.09
1173.72
1240.37
1300.44
1353.92
1402.24
1445.75
1484.14
1518.47
1550.37
1579.3
1605.05
1627.15
1646.77
1663.31
1677.78
1690.18
1700.21
1708.56
1714.85
1720.01
1723.35
1724.5
1723.92
1720.92
1714.92
1704.42
1687.04
1650.42
1575.17
1432.24
1168.49
821.213
485.466
296.701
303.287
311.16
320.494
331.614
344.994
361.272
380.495
402.191
428.995
460.622
497.109
541.612
594.389
655.509
724.499
799.235
877.038
954.698
1029.65
1099.84
1164.81
1224.91
1279.6
1329.26
1373.82
1413.59
1448.89
1479.78
1506.62
1529.5
1549.56
1566.22
1580.3
1592.01
1601.23
1608.39
1613.24
1615.89
1616.64
1613.77
1606.91
1595.23
1574.18
1531.67
1453.42
1297.97
1038.07
713.056
435.755
295.967
300.663
306.216
312.713
320.288
329.131
339.488
351.669
366.06
382.52
399.351
419.18
442.606
469.76
500.528
536.75
578.293
626.117
679.176
737.407
799.678
864.539
929.8
993.396
1054.15
1111.61
1164.52
1212.36
1254.95
1292.26
1324.65
1353.27
1378.12
1399.9
1417.98
1433.41
1446.32
1456.22
1463.36
1467.76
1467.18
1461.93
1450.52
1427.74
1382.65
1298.07
1132.35
885.405
592.076
389.869
295.435
298.817
302.788
307.402
312.729
318.858
325.899
333.983
343.133
353.344
364.988
378.284
392.311
407.426
424.746
444.575
467.295
491.303
519.05
551.093
587.435
628.667
674.245
723.504
775.557
828.873
881.48
931.935
979.276
1022.92
1063.3
1100.29
1134.1
1164.9
1192.56
1217.29
1238.64
1256.57
1271
1281.11
1285.15
1281.51
1270.93
1247.85
1199.42
1104.56
937.298
711.604
476.796
347.694
295.033
297.453
300.29
303.584
307.381
311.731
316.69
322.167
328.301
335.161
342.826
351.388
360.964
371.688
383.721
396.139
408.532
422.405
438.194
456.229
476.722
499.787
526.249
556.141
589.319
625.964
665.21
705.301
745.603
785.794
825.047
863.179
899.494
933.975
965.948
994.947
1020.5
1042.51
1060.56
1073.26
1079.19
1076.15
1064.94
1038.87
983.89
879.665
721.813
534.821
388.678
320.721
294.719
296.408
298.402
300.731
303.406
306.457
309.905
313.776
318.092
322.883
328.183
334.034
340.486
347.604
355.468
363.621
372.512
382.369
393.055
403.957
416.403
430.679
447.08
465.461
486.056
509.326
535.227
563.351
592.956
623.499
654.552
685.609
716.246
745.889
774.074
800.327
823.66
843.962
860.214
869.438
871.043
864.526
847.782
811.688
745.235
645.192
517.574
402.945
333.022
305.768
294.463
295.572
296.906
298.489
300.341
302.475
304.904
307.638
310.689
314.067
317.79
321.878
326.354
331.166
336.127
341.501
347.358
353.794
360.934
368.941
378.027
388.064
398.532
410.407
424.242
440.141
457.988
477.683
498.812
520.679
542.867
564.941
586.484
607.037
626.138
643.295
657.882
669.326
676.543
677.578
671.963
657.882
629.483
585.264
524.723
452.653
382.551
332.088
308.14
298.43
294.255
294.911
295.745
296.773
298.006
299.45
301.112
302.996
305.106
307.448
310.028
312.798
315.699
318.813
322.152
325.744
329.633
333.882
338.572
343.664
349.148
355.467
362.868
371.559
381.659
393.053
405.415
419.03
433.448
448.157
462.742
476.775
489.9
501.567
511.345
518.834
523.389
524.347
522.404
515.546
501.51
480.714
452.976
419.486
382.686
346.213
319.966
305.224
298.257
295.333
294.086
294.385
294.845
295.446
296.189
297.078
298.123
299.307
300.622
302.079
303.676
305.413
307.29
309.302
311.449
313.738
316.193
318.69
321.398
324.403
327.813
331.778
336.47
342.048
348.587
356.125
364.421
373.335
382.539
391.558
399.987
407.538
413.818
418.445
421.052
421.597
420.385
415.835
407.836
397.305
383.3
366.059
347.984
330.954
316.688
306.347
299.867
296.465
294.922
294.279
294.004
294.073
294.208
294.414
294.696
295.057
295.498
296.017
296.622
297.312
298.086
298.936
299.851
300.803
301.818
302.888
304.01
305.212
306.54
308.038
309.752
311.737
314.037
316.678
319.649
322.894
326.303
329.748
333.059
336.012
338.391
340.007
340.706
340.369
338.925
336.381
332.801
328.348
323.231
317.89
312.596
307.681
303.427
300.031
297.554
295.935
294.9
294.309
294.099
294.032
)
;

boundaryField
{
    AXIS
    {
        type            empty;
    }
    OUTLET
    {
        type            calculated;
        value           nonuniform List<scalar> 
25
(
792.794
791.054
786.684
779.648
770.104
758.116
743.855
727.253
708.761
688.771
667.155
642.344
612.474
576.046
533.284
485.466
435.755
389.869
347.694
320.721
305.768
298.43
295.333
294.279
294.032
)
;
    }
    COFLOW
    {
        type            calculated;
        value           uniform 294;
    }
    PILOT
    {
        type            calculated;
        value           uniform 2102.68;
    }
    FUEL
    {
        type            calculated;
        value           uniform 294;
    }
    WALL
    {
        type            calculated;
        value           nonuniform List<scalar> 
50
(
294.004
294.073
294.208
294.414
294.696
295.057
295.498
296.017
296.622
297.312
298.086
298.936
299.851
300.803
301.818
302.888
304.01
305.212
306.54
308.038
309.752
311.737
314.037
316.678
319.649
322.894
326.303
329.748
333.059
336.012
338.391
340.007
340.706
340.369
338.925
336.381
332.801
328.348
323.231
317.89
312.596
307.681
303.427
300.031
297.554
295.935
294.9
294.309
294.099
294.032
)
;
    }
    front
    {
        type            wedge;
    }
    back
    {
        type            wedge;
    }
}


// ************************************************************************* //
