/*--------------------------------*- C++ -*----------------------------------*\
| =========                 |                                                 |
| \\      /  F ield         | OpenFOAM: The Open Source CFD Toolbox           |
|  \\    /   O peration     | Version:  2.4.x                                 |
|   \\  /    A nd           | Web:      www.OpenFOAM.org                      |
|    \\/     M anipulation  |                                                 |
\*---------------------------------------------------------------------------*/
FoamFile
{
    version     2.0;
    format      ascii;
    class       volScalarField;
    location    "0.09";
    object      thermo:mu;
}
// * * * * * * * * * * * * * * * * * * * * * * * * * * * * * * * * * * * * * //

dimensions      [1 -1 -1 0 0 0 0];

internalField   nonuniform List<scalar> 
1250
(
1.88881e-05
2.08065e-05
2.27413e-05
2.4507e-05
2.61568e-05
2.76872e-05
2.91185e-05
3.04638e-05
3.17917e-05
3.32983e-05
3.47647e-05
3.61561e-05
3.7538e-05
3.89033e-05
4.02284e-05
4.15475e-05
4.27942e-05
4.39434e-05
4.50671e-05
4.61761e-05
4.72709e-05
4.8355e-05
4.94224e-05
5.03689e-05
5.13713e-05
5.2399e-05
5.33972e-05
5.43573e-05
5.52881e-05
5.61794e-05
5.70402e-05
5.78678e-05
5.86451e-05
5.93517e-05
6.00268e-05
6.06689e-05
6.12756e-05
6.18621e-05
6.24168e-05
6.29447e-05
6.34673e-05
6.39428e-05
6.4427e-05
6.49006e-05
6.52073e-05
6.55728e-05
6.57879e-05
6.30139e-05
5.40217e-05
3.87411e-05
1.90082e-05
2.11345e-05
2.31296e-05
2.49232e-05
2.65708e-05
2.80772e-05
2.94705e-05
3.0773e-05
3.22428e-05
3.37421e-05
3.51901e-05
3.65633e-05
3.79324e-05
3.92713e-05
4.0583e-05
4.18876e-05
4.3112e-05
4.42427e-05
4.53548e-05
4.64502e-05
4.75352e-05
4.86083e-05
4.96632e-05
5.05981e-05
5.15406e-05
5.25616e-05
5.3549e-05
5.45026e-05
5.54234e-05
5.63076e-05
5.71611e-05
5.79811e-05
5.87568e-05
5.94572e-05
6.01253e-05
6.07607e-05
6.13617e-05
6.19421e-05
6.24908e-05
6.30133e-05
6.35303e-05
6.4e-05
6.44804e-05
6.49475e-05
6.52505e-05
6.56063e-05
6.57747e-05
6.29631e-05
5.39423e-05
3.86834e-05
1.93831e-05
2.20402e-05
2.4159e-05
2.59797e-05
2.75699e-05
2.89534e-05
3.03191e-05
3.18116e-05
3.32924e-05
3.47497e-05
3.6151e-05
3.74824e-05
3.87996e-05
4.00908e-05
4.1375e-05
4.26385e-05
4.38103e-05
4.49053e-05
4.59862e-05
4.70554e-05
4.81159e-05
4.9161e-05
5.01885e-05
5.10941e-05
5.19539e-05
5.29179e-05
5.38846e-05
5.4823e-05
5.5723e-05
5.65926e-05
5.74296e-05
5.82325e-05
5.90024e-05
5.96898e-05
6.03407e-05
6.09606e-05
6.15495e-05
6.21152e-05
6.26521e-05
6.31623e-05
6.36694e-05
6.41264e-05
6.45979e-05
6.50496e-05
6.53445e-05
6.56802e-05
6.57444e-05
6.2845e-05
5.37491e-05
3.85385e-05
2.04973e-05
2.40211e-05
2.61999e-05
2.77943e-05
2.92174e-05
3.07105e-05
3.21505e-05
3.35477e-05
3.49423e-05
3.63232e-05
3.763e-05
3.88736e-05
4.01147e-05
4.13472e-05
4.25643e-05
4.37602e-05
4.48565e-05
4.58986e-05
4.69365e-05
4.7965e-05
4.89794e-05
4.99806e-05
5.09582e-05
5.1824e-05
5.26425e-05
5.34436e-05
5.43861e-05
5.52937e-05
5.61704e-05
5.70157e-05
5.78253e-05
5.86017e-05
5.93492e-05
6.00329e-05
6.066e-05
6.12594e-05
6.18274e-05
6.23731e-05
6.28905e-05
6.33847e-05
6.38718e-05
6.4312e-05
6.4766e-05
6.51964e-05
6.54802e-05
6.57787e-05
6.56806e-05
6.26513e-05
5.34406e-05
3.83041e-05
2.45947e-05
2.85154e-05
2.96606e-05
3.10098e-05
3.22493e-05
3.34308e-05
3.4644e-05
3.58825e-05
3.71416e-05
3.84044e-05
3.95636e-05
4.07027e-05
4.1836e-05
4.29597e-05
4.40858e-05
4.52123e-05
4.62132e-05
4.71962e-05
4.8169e-05
4.91346e-05
5.00849e-05
5.10207e-05
5.19397e-05
5.27558e-05
5.35237e-05
5.42728e-05
5.50351e-05
5.59111e-05
5.67519e-05
5.75593e-05
5.83362e-05
5.90834e-05
5.97963e-05
6.04766e-05
6.10754e-05
6.16449e-05
6.21852e-05
6.27043e-05
6.31972e-05
6.36694e-05
6.41296e-05
6.45478e-05
6.49794e-05
6.53787e-05
6.56443e-05
6.58955e-05
6.55875e-05
6.23863e-05
5.30132e-05
3.79844e-05
4.27921e-05
3.64939e-05
3.54403e-05
3.56873e-05
3.63388e-05
3.7137e-05
3.80577e-05
3.90709e-05
4.00889e-05
4.10845e-05
4.19768e-05
4.29002e-05
4.38371e-05
4.48653e-05
4.59016e-05
4.69287e-05
4.78301e-05
4.8728e-05
4.96227e-05
5.05104e-05
5.13815e-05
5.22407e-05
5.30862e-05
5.38506e-05
5.4557e-05
5.52546e-05
5.59367e-05
5.66505e-05
5.74488e-05
5.82179e-05
5.89498e-05
5.9651e-05
6.03245e-05
6.09703e-05
6.15684e-05
6.21038e-05
6.26092e-05
6.30978e-05
6.35588e-05
6.40013e-05
6.44298e-05
6.48207e-05
6.5224e-05
6.55843e-05
6.58233e-05
6.60168e-05
6.54592e-05
6.20457e-05
5.2485e-05
3.75798e-05
5.73201e-05
4.50424e-05
4.14851e-05
4.05533e-05
4.05046e-05
4.09687e-05
4.1625e-05
4.23927e-05
4.32299e-05
4.40137e-05
4.47482e-05
4.55166e-05
4.62989e-05
4.70925e-05
4.79068e-05
4.88102e-05
4.96181e-05
5.0425e-05
5.12296e-05
5.20284e-05
5.2808e-05
5.35842e-05
5.43579e-05
5.50663e-05
5.57052e-05
5.63391e-05
5.69639e-05
5.75786e-05
5.82418e-05
5.89546e-05
5.96383e-05
6.02937e-05
6.09211e-05
6.15211e-05
6.20927e-05
6.26117e-05
6.30815e-05
6.35309e-05
6.3957e-05
6.43653e-05
6.47586e-05
6.51162e-05
6.54836e-05
6.57989e-05
6.59989e-05
6.61165e-05
6.52783e-05
6.16116e-05
5.1858e-05
3.7094e-05
6.35039e-05
4.95922e-05
4.53164e-05
4.42273e-05
4.39788e-05
4.43597e-05
4.49287e-05
4.55854e-05
4.6296e-05
4.69093e-05
4.75098e-05
4.81379e-05
4.87878e-05
4.94415e-05
5.01024e-05
5.07382e-05
5.14506e-05
5.21639e-05
5.28786e-05
5.35884e-05
5.42936e-05
5.49936e-05
5.56894e-05
5.63487e-05
5.69234e-05
5.74873e-05
5.80457e-05
5.85958e-05
5.91388e-05
5.97539e-05
6.03795e-05
6.09789e-05
6.15542e-05
6.21052e-05
6.26298e-05
6.31307e-05
6.35776e-05
6.39845e-05
6.43688e-05
6.47378e-05
6.50872e-05
6.54095e-05
6.57333e-05
6.59957e-05
6.61506e-05
6.61754e-05
6.503e-05
6.10901e-05
5.11533e-05
3.65221e-05
6.29143e-05
4.94515e-05
4.59238e-05
4.57943e-05
4.62704e-05
4.68059e-05
4.7536e-05
4.82442e-05
4.89313e-05
4.94796e-05
5.00204e-05
5.05682e-05
5.11244e-05
5.16796e-05
5.22416e-05
5.27613e-05
5.32852e-05
5.39152e-05
5.45498e-05
5.5179e-05
5.57992e-05
5.64171e-05
5.70326e-05
5.76336e-05
5.81411e-05
5.86387e-05
5.91324e-05
5.96162e-05
6.00973e-05
6.05699e-05
6.11395e-05
6.16816e-05
6.21996e-05
6.26966e-05
6.3167e-05
6.36175e-05
6.40481e-05
6.44309e-05
6.47708e-05
6.50972e-05
6.54017e-05
6.56825e-05
6.59572e-05
6.6158e-05
6.62615e-05
6.61682e-05
6.47093e-05
6.04731e-05
5.03804e-05
3.58769e-05
5.25871e-05
4.27084e-05
4.20447e-05
4.45769e-05
4.64684e-05
4.7908e-05
4.90359e-05
5.00308e-05
5.0906e-05
5.16896e-05
5.23737e-05
5.29946e-05
5.35739e-05
5.41071e-05
5.46101e-05
5.49417e-05
5.52798e-05
5.57709e-05
5.62965e-05
5.68158e-05
5.7332e-05
5.78461e-05
5.8351e-05
5.88493e-05
5.92978e-05
5.97349e-05
6.0169e-05
6.05927e-05
6.10117e-05
6.14251e-05
6.18771e-05
6.23598e-05
6.28203e-05
6.32602e-05
6.36807e-05
6.40774e-05
6.44562e-05
6.48129e-05
6.51366e-05
6.54158e-05
6.56723e-05
6.59059e-05
6.61242e-05
6.62627e-05
6.62983e-05
6.60104e-05
6.43051e-05
5.97565e-05
4.95546e-05
3.51692e-05
2.58371e-05
3.10237e-05
3.48924e-05
3.99216e-05
4.40856e-05
4.69284e-05
4.89886e-05
5.05849e-05
5.1707e-05
5.26935e-05
5.36693e-05
5.4524e-05
5.52508e-05
5.59068e-05
5.64842e-05
5.67872e-05
5.70788e-05
5.74801e-05
5.78986e-05
5.83149e-05
5.87297e-05
5.9147e-05
5.95581e-05
5.99685e-05
6.0363e-05
6.07456e-05
6.11193e-05
6.14885e-05
6.18538e-05
6.22126e-05
6.25744e-05
6.29982e-05
6.33993e-05
6.37837e-05
6.41466e-05
6.44917e-05
6.48143e-05
6.51185e-05
6.53954e-05
6.56525e-05
6.58725e-05
6.60572e-05
6.62086e-05
6.62839e-05
6.62326e-05
6.57417e-05
6.37997e-05
5.89167e-05
4.86525e-05
3.43917e-05
2.04418e-05
2.43047e-05
2.78095e-05
3.27119e-05
3.82142e-05
4.29702e-05
4.66272e-05
4.91273e-05
5.10718e-05
5.25856e-05
5.37296e-05
5.47222e-05
5.55533e-05
5.62761e-05
5.68791e-05
5.74766e-05
5.80769e-05
5.85973e-05
5.90325e-05
5.94441e-05
5.98342e-05
6.02154e-05
6.05863e-05
6.09483e-05
6.12984e-05
6.1634e-05
6.19628e-05
6.22847e-05
6.25996e-05
6.29074e-05
6.32098e-05
6.35693e-05
6.39101e-05
6.42348e-05
6.45414e-05
6.4828e-05
6.50969e-05
6.53405e-05
6.55623e-05
6.57641e-05
6.59294e-05
6.6072e-05
6.6154e-05
6.61514e-05
6.59859e-05
6.53049e-05
6.31174e-05
5.7912e-05
4.75948e-05
3.34827e-05
1.90665e-05
2.12459e-05
2.34653e-05
2.65309e-05
3.07309e-05
3.5668e-05
4.05954e-05
4.4736e-05
4.79184e-05
5.0309e-05
5.21712e-05
5.37302e-05
5.49741e-05
5.59942e-05
5.68497e-05
5.75985e-05
5.82538e-05
5.88396e-05
5.93745e-05
5.98734e-05
6.03352e-05
6.07718e-05
6.11857e-05
6.1586e-05
6.19423e-05
6.22563e-05
6.25599e-05
6.28535e-05
6.31368e-05
6.34084e-05
6.36765e-05
6.39834e-05
6.42731e-05
6.45405e-05
6.47893e-05
6.50213e-05
6.52281e-05
6.54136e-05
6.55744e-05
6.57123e-05
6.58136e-05
6.58881e-05
6.58878e-05
6.58021e-05
6.5517e-05
6.46055e-05
6.21778e-05
5.66282e-05
4.62886e-05
3.23636e-05
1.86229e-05
1.9852e-05
2.12835e-05
2.30221e-05
2.5403e-05
2.85216e-05
3.2392e-05
3.67345e-05
4.09685e-05
4.47795e-05
4.78785e-05
5.03759e-05
5.23751e-05
5.39731e-05
5.53127e-05
5.64513e-05
5.7396e-05
5.82293e-05
5.8952e-05
5.95994e-05
6.01775e-05
6.07036e-05
6.11877e-05
6.16416e-05
6.20305e-05
6.23716e-05
6.26857e-05
6.29834e-05
6.32638e-05
6.35256e-05
6.38106e-05
6.40784e-05
6.43249e-05
6.45457e-05
6.4746e-05
6.49233e-05
6.50803e-05
6.52079e-05
6.53108e-05
6.53838e-05
6.54211e-05
6.54168e-05
6.53365e-05
6.51642e-05
6.4735e-05
6.35519e-05
6.08502e-05
5.49296e-05
4.46361e-05
3.09597e-05
1.84383e-05
1.91961e-05
2.00993e-05
2.12182e-05
2.25709e-05
2.42876e-05
2.64465e-05
2.91526e-05
3.24048e-05
3.60343e-05
3.97499e-05
4.31842e-05
4.61467e-05
4.87233e-05
5.08777e-05
5.26862e-05
5.42087e-05
5.55119e-05
5.66479e-05
5.76715e-05
5.85502e-05
5.9324e-05
6.00109e-05
6.06259e-05
6.11205e-05
6.15687e-05
6.1975e-05
6.23475e-05
6.27098e-05
6.30435e-05
6.33422e-05
6.36015e-05
6.3831e-05
6.40277e-05
6.42026e-05
6.43457e-05
6.44588e-05
6.45408e-05
6.45895e-05
6.46094e-05
6.4584e-05
6.45122e-05
6.43483e-05
6.40848e-05
6.34784e-05
6.20323e-05
5.89876e-05
5.27107e-05
4.2504e-05
2.92523e-05
1.83425e-05
1.8845e-05
1.9444e-05
2.01592e-05
2.103e-05
2.20971e-05
2.32982e-05
2.48125e-05
2.66155e-05
2.87822e-05
3.12921e-05
3.40999e-05
3.71278e-05
4.01801e-05
4.3068e-05
4.56779e-05
4.79838e-05
5.00136e-05
5.17673e-05
5.33038e-05
5.46391e-05
5.5821e-05
5.68661e-05
5.77738e-05
5.85749e-05
5.93101e-05
5.99698e-05
6.05517e-05
6.10468e-05
6.14832e-05
6.1849e-05
6.21673e-05
6.2439e-05
6.26578e-05
6.28394e-05
6.29759e-05
6.30878e-05
6.316e-05
6.3185e-05
6.31724e-05
6.31074e-05
6.29775e-05
6.27494e-05
6.23702e-05
6.1564e-05
5.98761e-05
5.65434e-05
4.98738e-05
3.96725e-05
2.7259e-05
1.82845e-05
1.86341e-05
1.90479e-05
1.9533e-05
2.01032e-05
2.07786e-05
2.1585e-05
2.25169e-05
2.35432e-05
2.47762e-05
2.6185e-05
2.77531e-05
2.95901e-05
3.16722e-05
3.39672e-05
3.64266e-05
3.89537e-05
4.14528e-05
4.383e-05
4.6026e-05
4.80046e-05
4.97752e-05
5.13652e-05
5.27752e-05
5.4027e-05
5.51285e-05
5.60952e-05
5.69407e-05
5.76714e-05
5.82994e-05
5.88299e-05
5.92917e-05
5.96725e-05
5.99925e-05
6.02576e-05
6.04656e-05
6.06265e-05
6.07356e-05
6.07948e-05
6.08116e-05
6.07474e-05
6.05934e-05
6.03302e-05
5.98536e-05
5.88801e-05
5.70484e-05
5.32412e-05
4.62672e-05
3.60275e-05
2.50814e-05
1.82453e-05
1.84951e-05
1.87885e-05
1.9129e-05
1.95224e-05
1.99766e-05
2.0502e-05
2.11113e-05
2.18192e-05
2.26138e-05
2.34103e-05
2.43291e-05
2.53884e-05
2.65833e-05
2.7897e-05
2.93932e-05
3.10476e-05
3.28782e-05
3.48257e-05
3.68727e-05
3.89683e-05
4.10597e-05
4.30797e-05
4.49752e-05
4.67248e-05
4.83297e-05
4.97674e-05
5.10368e-05
5.21438e-05
5.30968e-05
5.39118e-05
5.46229e-05
5.52337e-05
5.57643e-05
5.62009e-05
5.65713e-05
5.68797e-05
5.71148e-05
5.72841e-05
5.73881e-05
5.73743e-05
5.72501e-05
5.69794e-05
5.64356e-05
5.53444e-05
5.32437e-05
4.88974e-05
4.17143e-05
3.15829e-05
2.29635e-05
1.82169e-05
1.83971e-05
1.86077e-05
1.88509e-05
1.91299e-05
1.94484e-05
1.98112e-05
2.02236e-05
2.06853e-05
2.11943e-05
2.17669e-05
2.24108e-05
2.30791e-05
2.3787e-05
2.45833e-05
2.54763e-05
2.64762e-05
2.75074e-05
2.86687e-05
2.99715e-05
3.14034e-05
3.29737e-05
3.46481e-05
3.6392e-05
3.81673e-05
3.99206e-05
4.15918e-05
4.31445e-05
4.45602e-05
4.58325e-05
4.69835e-05
4.80172e-05
4.89451e-05
4.97775e-05
5.05148e-05
5.11658e-05
5.17224e-05
5.21856e-05
5.25556e-05
5.28137e-05
5.29165e-05
5.28238e-05
5.25539e-05
5.19607e-05
5.0696e-05
4.81352e-05
4.33068e-05
3.59766e-05
2.68874e-05
2.09135e-05
1.81954e-05
1.83245e-05
1.84753e-05
1.86498e-05
1.88498e-05
1.90778e-05
1.9336e-05
1.96193e-05
1.99342e-05
2.02834e-05
2.06699e-05
2.10973e-05
2.157e-05
2.20926e-05
2.26711e-05
2.32595e-05
2.38383e-05
2.44766e-05
2.5191e-05
2.59922e-05
2.68842e-05
2.78659e-05
2.89648e-05
3.01732e-05
3.14764e-05
3.28724e-05
3.43211e-05
3.57552e-05
3.71538e-05
3.85089e-05
3.97969e-05
4.10167e-05
4.21516e-05
4.32063e-05
4.41655e-05
4.50205e-05
4.57627e-05
4.6394e-05
4.69062e-05
4.72638e-05
4.743e-05
4.73447e-05
4.70298e-05
4.62901e-05
4.46961e-05
4.15351e-05
3.63332e-05
2.93148e-05
2.2907e-05
1.95447e-05
1.81786e-05
1.82689e-05
1.83751e-05
1.84988e-05
1.86403e-05
1.88012e-05
1.89823e-05
1.91845e-05
1.94088e-05
1.96562e-05
1.99282e-05
2.02262e-05
2.05523e-05
2.0909e-05
2.12994e-05
2.17001e-05
2.21325e-05
2.26065e-05
2.31142e-05
2.36256e-05
2.42016e-05
2.48525e-05
2.55877e-05
2.63964e-05
2.72842e-05
2.82653e-05
2.93313e-05
3.04598e-05
3.16169e-05
3.27798e-05
3.39322e-05
3.50563e-05
3.61391e-05
3.71636e-05
3.81176e-05
3.89897e-05
3.97519e-05
4.04057e-05
4.09229e-05
4.12141e-05
4.12646e-05
4.10593e-05
4.05277e-05
3.93623e-05
3.71412e-05
3.35879e-05
2.86077e-05
2.35784e-05
2.01748e-05
1.8765e-05
1.81649e-05
1.82242e-05
1.82954e-05
1.83797e-05
1.84781e-05
1.85911e-05
1.87194e-05
1.88633e-05
1.90233e-05
1.91996e-05
1.93931e-05
1.96044e-05
1.98345e-05
2.00804e-05
2.03323e-05
2.06034e-05
2.08968e-05
2.12166e-05
2.15684e-05
2.19594e-05
2.23984e-05
2.28779e-05
2.33719e-05
2.39251e-05
2.45603e-05
2.52782e-05
2.60695e-05
2.69255e-05
2.78248e-05
2.87359e-05
2.96408e-05
3.05227e-05
3.13665e-05
3.21568e-05
3.28789e-05
3.35178e-05
3.4054e-05
3.44703e-05
3.4731e-05
3.47682e-05
3.45657e-05
3.4054e-05
3.30042e-05
3.13191e-05
2.89022e-05
2.58345e-05
2.26152e-05
2.01273e-05
1.88897e-05
1.83765e-05
1.81538e-05
1.81889e-05
1.82335e-05
1.82883e-05
1.8354e-05
1.84308e-05
1.85189e-05
1.86187e-05
1.87301e-05
1.88533e-05
1.89887e-05
1.91335e-05
1.92846e-05
1.94461e-05
1.96186e-05
1.98033e-05
2.00022e-05
2.02185e-05
2.04559e-05
2.0712e-05
2.09859e-05
2.12993e-05
2.16632e-05
2.20864e-05
2.25726e-05
2.31141e-05
2.36935e-05
2.43222e-05
2.49775e-05
2.56355e-05
2.62778e-05
2.68864e-05
2.74479e-05
2.79407e-05
2.83494e-05
2.86597e-05
2.88474e-05
2.88868e-05
2.88069e-05
2.85237e-05
2.79383e-05
2.70557e-05
2.58488e-05
2.43431e-05
2.26217e-05
2.08396e-05
1.95057e-05
1.87363e-05
1.83673e-05
1.82115e-05
1.81448e-05
1.81608e-05
1.81854e-05
1.82175e-05
1.82571e-05
1.83046e-05
1.83602e-05
1.84232e-05
1.8493e-05
1.85701e-05
1.86546e-05
1.87463e-05
1.8845e-05
1.89507e-05
1.9063e-05
1.91825e-05
1.93102e-05
1.94397e-05
1.95797e-05
1.97344e-05
1.99092e-05
2.01116e-05
2.03497e-05
2.06309e-05
2.0958e-05
2.13318e-05
2.17392e-05
2.21723e-05
2.26147e-05
2.30435e-05
2.34401e-05
2.37922e-05
2.40827e-05
2.42954e-05
2.44147e-05
2.44396e-05
2.43842e-05
2.41755e-05
2.3806e-05
2.33143e-05
2.2651e-05
2.18191e-05
2.0928e-05
2.00696e-05
1.93359e-05
1.87954e-05
1.84529e-05
1.82719e-05
1.81895e-05
1.81551e-05
1.81404e-05
1.81441e-05
1.81513e-05
1.81624e-05
1.81774e-05
1.81967e-05
1.82203e-05
1.8248e-05
1.82803e-05
1.83171e-05
1.83582e-05
1.84034e-05
1.8452e-05
1.85025e-05
1.85563e-05
1.8613e-05
1.86722e-05
1.87356e-05
1.88056e-05
1.88843e-05
1.89742e-05
1.90781e-05
1.91981e-05
1.93354e-05
1.94893e-05
1.96568e-05
1.98319e-05
2.00081e-05
2.01767e-05
2.03265e-05
2.04468e-05
2.05282e-05
2.05634e-05
2.05464e-05
2.04737e-05
2.03452e-05
2.01636e-05
1.99366e-05
1.96741e-05
1.93983e-05
1.91229e-05
1.88656e-05
1.86414e-05
1.84616e-05
1.83299e-05
1.82436e-05
1.81883e-05
1.81567e-05
1.81455e-05
1.81419e-05
)
;

boundaryField
{
    AXIS
    {
        type            empty;
    }
    OUTLET
    {
        type            calculated;
        value           nonuniform List<scalar> 
25
(
3.87411e-05
3.86834e-05
3.85385e-05
3.83041e-05
3.79844e-05
3.75798e-05
3.7094e-05
3.65221e-05
3.58769e-05
3.51692e-05
3.43917e-05
3.34827e-05
3.23636e-05
3.09597e-05
2.92523e-05
2.7259e-05
2.50814e-05
2.29635e-05
2.09135e-05
1.95447e-05
1.8765e-05
1.83765e-05
1.82115e-05
1.81551e-05
1.81419e-05
)
;
    }
    COFLOW
    {
        type            calculated;
        value           uniform 1.81402e-05;
    }
    PILOT
    {
        type            calculated;
        value           uniform 7.09187e-05;
    }
    FUEL
    {
        type            calculated;
        value           uniform 1.81402e-05;
    }
    WALL
    {
        type            calculated;
        value           nonuniform List<scalar> 
50
(
1.81404e-05
1.81441e-05
1.81513e-05
1.81624e-05
1.81774e-05
1.81967e-05
1.82203e-05
1.8248e-05
1.82803e-05
1.83171e-05
1.83582e-05
1.84034e-05
1.8452e-05
1.85025e-05
1.85563e-05
1.8613e-05
1.86722e-05
1.87356e-05
1.88056e-05
1.88843e-05
1.89742e-05
1.90781e-05
1.91981e-05
1.93354e-05
1.94893e-05
1.96568e-05
1.98319e-05
2.00081e-05
2.01767e-05
2.03265e-05
2.04468e-05
2.05282e-05
2.05634e-05
2.05464e-05
2.04737e-05
2.03452e-05
2.01636e-05
1.99366e-05
1.96741e-05
1.93983e-05
1.91229e-05
1.88656e-05
1.86414e-05
1.84616e-05
1.83299e-05
1.82436e-05
1.81883e-05
1.81567e-05
1.81455e-05
1.81419e-05
)
;
    }
    front
    {
        type            wedge;
    }
    back
    {
        type            wedge;
    }
}


// ************************************************************************* //
