/*--------------------------------*- C++ -*----------------------------------*\
| =========                 |                                                 |
| \\      /  F ield         | OpenFOAM: The Open Source CFD Toolbox           |
|  \\    /   O peration     | Version:  2.4.x                                 |
|   \\  /    A nd           | Web:      www.OpenFOAM.org                      |
|    \\/     M anipulation  |                                                 |
\*---------------------------------------------------------------------------*/
FoamFile
{
    version     2.0;
    format      ascii;
    class       volScalarField;
    location    "0.09";
    object      thermo:psi;
}
// * * * * * * * * * * * * * * * * * * * * * * * * * * * * * * * * * * * * * //

dimensions      [0 -2 2 0 0 0 0];

internalField   nonuniform List<scalar> 
1250
(
1.0013e-05
8.9241e-06
8.00506e-06
7.29001e-06
6.70829e-06
6.23106e-06
5.83102e-06
5.49022e-06
5.18217e-06
4.85949e-06
4.57305e-06
4.32387e-06
4.09555e-06
3.8868e-06
3.6988e-06
3.52441e-06
3.37034e-06
3.2368e-06
3.11356e-06
2.99848e-06
2.8909e-06
2.78983e-06
2.69535e-06
2.61565e-06
2.53403e-06
2.45366e-06
2.37919e-06
2.31076e-06
2.24726e-06
2.189e-06
2.13499e-06
2.0851e-06
2.04007e-06
2.0007e-06
1.96437e-06
1.931e-06
1.9005e-06
1.87199e-06
1.84592e-06
1.82188e-06
1.79897e-06
1.7787e-06
1.75877e-06
1.74018e-06
1.72928e-06
1.71909e-06
1.7264e-06
1.89986e-06
2.51501e-06
4.30925e-06
9.9386e-06
8.75642e-06
7.83841e-06
7.13621e-06
6.57448e-06
6.11932e-06
5.74087e-06
5.41894e-06
5.08356e-06
4.77129e-06
4.49584e-06
4.25588e-06
4.03475e-06
3.83438e-06
3.65186e-06
3.48247e-06
3.33367e-06
3.20431e-06
3.08407e-06
2.97193e-06
2.86664e-06
2.76782e-06
2.67549e-06
2.5976e-06
2.52193e-06
2.4426e-06
2.36939e-06
2.3018e-06
2.23932e-06
2.1818e-06
2.12851e-06
2.07929e-06
2.03451e-06
1.99565e-06
1.95983e-06
1.92694e-06
1.89682e-06
1.86871e-06
1.84301e-06
1.81928e-06
1.79669e-06
1.77672e-06
1.75702e-06
1.73874e-06
1.728e-06
1.71827e-06
1.72769e-06
1.90296e-06
2.52141e-06
4.31901e-06
9.71173e-06
8.31808e-06
7.42209e-06
6.76848e-06
6.26952e-06
5.88157e-06
5.53248e-06
5.18186e-06
4.86509e-06
4.58019e-06
4.32877e-06
4.10841e-06
3.90609e-06
3.72156e-06
3.55024e-06
3.39259e-06
3.2553e-06
3.13415e-06
3.02088e-06
2.9146e-06
2.81451e-06
2.72075e-06
2.633e-06
2.55925e-06
2.49209e-06
2.41864e-06
2.34791e-06
2.28221e-06
2.22185e-06
2.1659e-06
2.11417e-06
2.06644e-06
2.02239e-06
1.98457e-06
1.94998e-06
1.91814e-06
1.88885e-06
1.86166e-06
1.83668e-06
1.81368e-06
1.79165e-06
1.77236e-06
1.75314e-06
1.7356e-06
1.72524e-06
1.71647e-06
1.73058e-06
1.91018e-06
2.53706e-06
4.34368e-06
9.08297e-06
7.47097e-06
6.69419e-06
6.20741e-06
5.81748e-06
5.44208e-06
5.11255e-06
4.81961e-06
4.55057e-06
4.30499e-06
4.09021e-06
3.90023e-06
3.72305e-06
3.55837e-06
3.40588e-06
3.26512e-06
3.14327e-06
3.03349e-06
2.9296e-06
2.8317e-06
2.73978e-06
2.65331e-06
2.57274e-06
2.50451e-06
2.44253e-06
2.3841e-06
2.31643e-06
2.25403e-06
2.19622e-06
2.14269e-06
2.0934e-06
2.0479e-06
2.00567e-06
1.96847e-06
1.93556e-06
1.90512e-06
1.8772e-06
1.85126e-06
1.82743e-06
1.80539e-06
1.78444e-06
1.76604e-06
1.74775e-06
1.73121e-06
1.72136e-06
1.71435e-06
1.73579e-06
1.922e-06
2.56233e-06
4.384e-06
7.23911e-06
5.98372e-06
5.70098e-06
5.377e-06
5.10082e-06
4.85483e-06
4.61844e-06
4.39314e-06
4.17946e-06
3.9797e-06
3.80883e-06
3.65114e-06
3.50355e-06
3.36568e-06
3.23499e-06
3.11119e-06
3.00702e-06
2.90962e-06
2.81772e-06
2.73065e-06
2.6488e-06
2.5717e-06
2.49921e-06
2.4375e-06
2.38154e-06
2.32885e-06
2.27682e-06
2.21795e-06
2.1637e-06
2.1136e-06
2.06718e-06
2.02415e-06
1.98454e-06
1.94804e-06
1.91711e-06
1.88863e-06
1.86245e-06
1.83812e-06
1.81573e-06
1.79495e-06
1.77543e-06
1.75817e-06
1.74105e-06
1.72596e-06
1.71694e-06
1.71214e-06
1.74307e-06
1.93824e-06
2.59787e-06
4.43987e-06
3.37055e-06
4.28868e-06
4.48434e-06
4.44463e-06
4.33235e-06
4.19823e-06
4.05003e-06
3.89525e-06
3.74862e-06
3.61333e-06
3.49847e-06
3.3848e-06
3.27469e-06
3.15898e-06
3.04816e-06
2.94386e-06
2.85677e-06
2.77377e-06
2.69456e-06
2.61924e-06
2.54838e-06
2.48128e-06
2.41782e-06
2.36262e-06
2.31338e-06
2.2663e-06
2.22172e-06
2.17612e-06
2.12589e-06
2.07927e-06
2.03651e-06
1.99695e-06
1.96024e-06
1.92619e-06
1.89574e-06
1.86944e-06
1.84538e-06
1.82284e-06
1.80225e-06
1.78311e-06
1.76523e-06
1.74936e-06
1.73367e-06
1.72035e-06
1.71255e-06
1.71041e-06
1.75263e-06
1.95919e-06
2.64273e-06
4.51201e-06
2.18223e-06
3.18439e-06
3.60445e-06
3.72441e-06
3.72683e-06
3.65949e-06
3.56913e-06
3.46847e-06
3.36397e-06
3.27053e-06
3.18666e-06
3.10255e-06
3.0204e-06
2.94041e-06
2.86154e-06
2.77695e-06
2.7046e-06
2.63516e-06
2.56859e-06
2.505e-06
2.4453e-06
2.38799e-06
2.33287e-06
2.28417e-06
2.24167e-06
2.20074e-06
2.16157e-06
2.12415e-06
2.08434e-06
2.04223e-06
2.00322e-06
1.96705e-06
1.93356e-06
1.90256e-06
1.87396e-06
1.84886e-06
1.82691e-06
1.80658e-06
1.78788e-06
1.77057e-06
1.75447e-06
1.74024e-06
1.72629e-06
1.71498e-06
1.70896e-06
1.71024e-06
1.76524e-06
1.98597e-06
2.69733e-06
4.60084e-06
1.88052e-06
2.79627e-06
3.20441e-06
3.3115e-06
3.32837e-06
3.27506e-06
3.20352e-06
3.12611e-06
3.04676e-06
2.98099e-06
2.91911e-06
2.85693e-06
2.79507e-06
2.7351e-06
2.67666e-06
2.62255e-06
2.5631e-06
2.50564e-06
2.4501e-06
2.39686e-06
2.34578e-06
2.29677e-06
2.24969e-06
2.20652e-06
2.17003e-06
2.1352e-06
2.10163e-06
2.06943e-06
2.03849e-06
2.00352e-06
1.96869e-06
1.93637e-06
1.9063e-06
1.87838e-06
1.85263e-06
1.82879e-06
1.80825e-06
1.79022e-06
1.77372e-06
1.7584e-06
1.74441e-06
1.73188e-06
1.71999e-06
1.71099e-06
1.70699e-06
1.71242e-06
1.78158e-06
2.01848e-06
2.76057e-06
4.70857e-06
1.93302e-06
2.87211e-06
3.20207e-06
3.19039e-06
3.11939e-06
3.04901e-06
2.96411e-06
2.88668e-06
2.81552e-06
2.76067e-06
2.70881e-06
2.65845e-06
2.6093e-06
2.56199e-06
2.51578e-06
2.47448e-06
2.43389e-06
2.38604e-06
2.33952e-06
2.29487e-06
2.25225e-06
2.21113e-06
2.17142e-06
2.13382e-06
2.10296e-06
2.07346e-06
2.04492e-06
2.01763e-06
1.99114e-06
1.96577e-06
1.93479e-06
1.90619e-06
1.87967e-06
1.85497e-06
1.83232e-06
1.81126e-06
1.79173e-06
1.77501e-06
1.76074e-06
1.74751e-06
1.73562e-06
1.72503e-06
1.71537e-06
1.709e-06
1.70729e-06
1.718e-06
1.80192e-06
2.05744e-06
2.83231e-06
4.83445e-06
2.64874e-06
3.68576e-06
3.74471e-06
3.38634e-06
3.14658e-06
2.97867e-06
2.85532e-06
2.75324e-06
2.66837e-06
2.59593e-06
2.53493e-06
2.48164e-06
2.43359e-06
2.39076e-06
2.3519e-06
2.32722e-06
2.30283e-06
2.26781e-06
2.23149e-06
2.19665e-06
2.16306e-06
2.13061e-06
2.09961e-06
2.06987e-06
2.04358e-06
2.01854e-06
1.99425e-06
1.97109e-06
1.94872e-06
1.92714e-06
1.90358e-06
1.8786e-06
1.85544e-06
1.83397e-06
1.81404e-06
1.7958e-06
1.77891e-06
1.76352e-06
1.75007e-06
1.73905e-06
1.72934e-06
1.72089e-06
1.71369e-06
1.70996e-06
1.71126e-06
1.73075e-06
1.82685e-06
2.10356e-06
2.91181e-06
4.97805e-06
7.62894e-06
5.94337e-06
5.00676e-06
4.07358e-06
3.47089e-06
3.1223e-06
2.89751e-06
2.73749e-06
2.63096e-06
2.54253e-06
2.46058e-06
2.39139e-06
2.33446e-06
2.28486e-06
2.24263e-06
2.22003e-06
2.19901e-06
2.17113e-06
2.14306e-06
2.11597e-06
2.08973e-06
2.06412e-06
2.03951e-06
2.01558e-06
1.99308e-06
1.9717e-06
1.95129e-06
1.93157e-06
1.91249e-06
1.89415e-06
1.87595e-06
1.85435e-06
1.83447e-06
1.81596e-06
1.799e-06
1.78336e-06
1.76921e-06
1.7563e-06
1.745e-06
1.73495e-06
1.7268e-06
1.72052e-06
1.71618e-06
1.71509e-06
1.72028e-06
1.74911e-06
1.85752e-06
2.15893e-06
3.0022e-06
5.14296e-06
1.0243e-05
8.25102e-06
6.90269e-06
5.50268e-06
4.3696e-06
3.63572e-06
3.18065e-06
2.90831e-06
2.71834e-06
2.58124e-06
2.48304e-06
2.40206e-06
2.33695e-06
2.2824e-06
2.23819e-06
2.19612e-06
2.15501e-06
2.11975e-06
2.09074e-06
2.06408e-06
2.0395e-06
2.01618e-06
1.99409e-06
1.97307e-06
1.9533e-06
1.93477e-06
1.91702e-06
1.90003e-06
1.88377e-06
1.8682e-06
1.85324e-06
1.83512e-06
1.81837e-06
1.80287e-06
1.78866e-06
1.77581e-06
1.76414e-06
1.75398e-06
1.74514e-06
1.73748e-06
1.73167e-06
1.72716e-06
1.72572e-06
1.72796e-06
1.73836e-06
1.77629e-06
1.89853e-06
2.22729e-06
3.11313e-06
5.34588e-06
1.11323e-05
9.76987e-06
8.62714e-06
7.35338e-06
6.01754e-06
4.8566e-06
3.99017e-06
3.41921e-06
3.05314e-06
2.81055e-06
2.63865e-06
2.5054e-06
2.4051e-06
2.32646e-06
2.2629e-06
2.20914e-06
2.16342e-06
2.12367e-06
2.08834e-06
2.05626e-06
2.02729e-06
2.00062e-06
1.97593e-06
1.95266e-06
1.93243e-06
1.91501e-06
1.89852e-06
1.88292e-06
1.8682e-06
1.85435e-06
1.84092e-06
1.82539e-06
1.81111e-06
1.79832e-06
1.78678e-06
1.77638e-06
1.76747e-06
1.75983e-06
1.75361e-06
1.74867e-06
1.74556e-06
1.74395e-06
1.74597e-06
1.75186e-06
1.76795e-06
1.81756e-06
1.95527e-06
2.31832e-06
3.25808e-06
5.61188e-06
1.14453e-05
1.06085e-05
9.74765e-06
8.83882e-06
7.78932e-06
6.67494e-06
5.59121e-06
4.65445e-06
3.94214e-06
3.42385e-06
3.06873e-06
2.81763e-06
2.63576e-06
2.50129e-06
2.3953e-06
2.30972e-06
2.24148e-06
2.18345e-06
2.13468e-06
2.09224e-06
2.0553e-06
2.02255e-06
1.99313e-06
1.96621e-06
1.94364e-06
1.92426e-06
1.90675e-06
1.89049e-06
1.87549e-06
1.86175e-06
1.84672e-06
1.83291e-06
1.82048e-06
1.80969e-06
1.80019e-06
1.7921e-06
1.78525e-06
1.78003e-06
1.77622e-06
1.77399e-06
1.77359e-06
1.77537e-06
1.78084e-06
1.79077e-06
1.81417e-06
1.87876e-06
2.03711e-06
2.44581e-06
3.45507e-06
5.97344e-06
1.15799e-05
1.10426e-05
1.04516e-05
9.785e-06
9.06307e-06
8.25823e-06
7.39045e-06
6.48215e-06
5.59265e-06
4.79469e-06
4.13621e-06
3.63545e-06
3.26886e-06
2.98965e-06
2.78041e-06
2.61967e-06
2.49372e-06
2.39211e-06
2.3079e-06
2.23536e-06
2.17538e-06
2.12432e-06
2.08032e-06
2.04199e-06
2.01189e-06
1.98519e-06
1.96144e-06
1.9401e-06
1.91949e-06
1.90083e-06
1.88443e-06
1.87047e-06
1.85835e-06
1.84826e-06
1.83949e-06
1.8326e-06
1.82742e-06
1.82396e-06
1.82237e-06
1.82232e-06
1.82464e-06
1.82942e-06
1.83883e-06
1.8535e-06
1.88681e-06
1.96849e-06
2.15725e-06
2.62623e-06
3.73435e-06
6.46078e-06
1.16506e-05
1.12866e-05
1.08755e-05
1.04145e-05
9.89317e-06
9.30758e-06
8.70985e-06
8.03594e-06
7.33119e-06
6.5998e-06
5.87956e-06
5.20187e-06
4.5904e-06
4.07273e-06
3.65569e-06
3.32841e-06
3.07211e-06
2.86843e-06
2.70693e-06
2.5754e-06
2.4679e-06
2.37767e-06
2.30149e-06
2.23792e-06
2.18367e-06
2.1354e-06
2.09331e-06
2.05709e-06
2.0269e-06
2.00083e-06
1.97933e-06
1.96094e-06
1.94552e-06
1.9333e-06
1.92335e-06
1.91607e-06
1.91025e-06
1.90672e-06
1.90587e-06
1.90707e-06
1.91119e-06
1.91885e-06
1.93189e-06
1.95346e-06
2e-06
2.10224e-06
2.32723e-06
2.88355e-06
4.156e-06
7.10732e-06
1.16939e-05
1.14373e-05
1.11448e-05
1.08167e-05
1.045e-05
1.00402e-05
9.58278e-06
9.09312e-06
8.59688e-06
8.05324e-06
7.49306e-06
6.93537e-06
6.35691e-06
5.7832e-06
5.23419e-06
4.72568e-06
4.2737e-06
3.8848e-06
3.5596e-06
3.29206e-06
3.07432e-06
2.89596e-06
2.74772e-06
2.62482e-06
2.5219e-06
2.43577e-06
2.36343e-06
2.30249e-06
2.25151e-06
2.20887e-06
2.17367e-06
2.14368e-06
2.11935e-06
2.09923e-06
2.08281e-06
2.07009e-06
2.06036e-06
2.05388e-06
2.05046e-06
2.04959e-06
2.05358e-06
2.06295e-06
2.07896e-06
2.10825e-06
2.16989e-06
2.29345e-06
2.58403e-06
3.26259e-06
4.80424e-06
7.92982e-06
1.17233e-05
1.15383e-05
1.13268e-05
1.10891e-05
1.08241e-05
1.05302e-05
1.02056e-05
9.84839e-06
9.45709e-06
9.0457e-06
8.66008e-06
8.24558e-06
7.80379e-06
7.34687e-06
6.88911e-06
6.41748e-06
5.9493e-06
5.48726e-06
5.05044e-06
4.64336e-06
4.27357e-06
3.94496e-06
3.66053e-06
3.4192e-06
3.21578e-06
3.04375e-06
2.90028e-06
2.78126e-06
2.68289e-06
2.60197e-06
2.53534e-06
2.4791e-06
2.43211e-06
2.39229e-06
2.36014e-06
2.33332e-06
2.31132e-06
2.29469e-06
2.28279e-06
2.27545e-06
2.27623e-06
2.28456e-06
2.3031e-06
2.34121e-06
2.42083e-06
2.58607e-06
2.98206e-06
3.84666e-06
5.80853e-06
8.87511e-06
1.17446e-05
1.16103e-05
1.14565e-05
1.12829e-05
1.10887e-05
1.08735e-05
1.06362e-05
1.03762e-05
1.00967e-05
9.80193e-06
9.48594e-06
9.14896e-06
8.81826e-06
8.48748e-06
8.13739e-06
7.77012e-06
7.38765e-06
7.02164e-06
6.64081e-06
6.24875e-06
5.85591e-06
5.46521e-06
5.08898e-06
4.73565e-06
4.41104e-06
4.12081e-06
3.86881e-06
3.65379e-06
3.47213e-06
3.3195e-06
3.18938e-06
3.07848e-06
2.98344e-06
2.90161e-06
2.83163e-06
2.77175e-06
2.72189e-06
2.68129e-06
2.64939e-06
2.62733e-06
2.61838e-06
2.6257e-06
2.64796e-06
2.69839e-06
2.81128e-06
3.06201e-06
3.62844e-06
4.81458e-06
7.23841e-06
9.9641e-06
1.17608e-05
1.16642e-05
1.15529e-05
1.14263e-05
1.12838e-05
1.11248e-05
1.0949e-05
1.0761e-05
1.0558e-05
1.03398e-05
1.01063e-05
9.85763e-06
9.59347e-06
9.31387e-06
9.01874e-06
8.73303e-06
8.46502e-06
8.18362e-06
7.88504e-06
7.56929e-06
7.2395e-06
6.90077e-06
6.54873e-06
6.19137e-06
5.83726e-06
5.48977e-06
5.1601e-06
4.86109e-06
4.59296e-06
4.35296e-06
4.14115e-06
3.95381e-06
3.79014e-06
3.64648e-06
3.5224e-06
3.41665e-06
3.32839e-06
3.25575e-06
3.19836e-06
3.15897e-06
3.14068e-06
3.14944e-06
3.18321e-06
3.26524e-06
3.45326e-06
3.87477e-06
4.74557e-06
6.44188e-06
8.90264e-06
1.08107e-05
1.17734e-05
1.17057e-05
1.16267e-05
1.15359e-05
1.14332e-05
1.13183e-05
1.11912e-05
1.10518e-05
1.09004e-05
1.07372e-05
1.05622e-05
1.03754e-05
1.01769e-05
9.96658e-06
9.74398e-06
9.52318e-06
9.2934e-06
9.05112e-06
8.80221e-06
8.56188e-06
8.30289e-06
8.02429e-06
7.72618e-06
7.41682e-06
7.09794e-06
6.76881e-06
6.4362e-06
6.10971e-06
5.79971e-06
5.51076e-06
5.24466e-06
5.00273e-06
4.7846e-06
4.59065e-06
4.42002e-06
4.27188e-06
4.14817e-06
4.04608e-06
3.96781e-06
3.92443e-06
3.91675e-06
3.94674e-06
4.0264e-06
4.20971e-06
4.59398e-06
5.32221e-06
6.66003e-06
8.5838e-06
1.04076e-05
1.13443e-05
1.17838e-05
1.17391e-05
1.16859e-05
1.16234e-05
1.1551e-05
1.14688e-05
1.13766e-05
1.12746e-05
1.11628e-05
1.10417e-05
1.09112e-05
1.07714e-05
1.06223e-05
1.04665e-05
1.03105e-05
1.01466e-05
9.97377e-06
9.79042e-06
9.59469e-06
9.38414e-06
9.15605e-06
8.9163e-06
8.67902e-06
8.42456e-06
8.14611e-06
7.84781e-06
7.53769e-06
7.22243e-06
6.91219e-06
6.61768e-06
6.34314e-06
6.09145e-06
5.86425e-06
5.66253e-06
5.48696e-06
5.33817e-06
5.21787e-06
5.12723e-06
5.07174e-06
5.0641e-06
5.10712e-06
5.21843e-06
5.45823e-06
5.87813e-06
6.56797e-06
7.62993e-06
9.04682e-06
1.04371e-05
1.12562e-05
1.16258e-05
1.17922e-05
1.17657e-05
1.17322e-05
1.16912e-05
1.16424e-05
1.15858e-05
1.15213e-05
1.1449e-05
1.13691e-05
1.12818e-05
1.1187e-05
1.10871e-05
1.09843e-05
1.0876e-05
1.07622e-05
1.06423e-05
1.05156e-05
1.03804e-05
1.02351e-05
1.00819e-05
9.92158e-06
9.74301e-06
9.54177e-06
9.3157e-06
9.06592e-06
8.79969e-06
8.52799e-06
8.24736e-06
7.9695e-06
7.7045e-06
7.45841e-06
7.23591e-06
7.03955e-06
6.87371e-06
6.74062e-06
6.64216e-06
6.58381e-06
6.57195e-06
6.59712e-06
6.68659e-06
6.87674e-06
7.17853e-06
7.62434e-06
8.24118e-06
9.0435e-06
1.00071e-05
1.08364e-05
1.13647e-05
1.16326e-05
1.17488e-05
1.1799e-05
1.17869e-05
1.17684e-05
1.17442e-05
1.17145e-05
1.16791e-05
1.16378e-05
1.15914e-05
1.15403e-05
1.14841e-05
1.14232e-05
1.13576e-05
1.12876e-05
1.12135e-05
1.11355e-05
1.10535e-05
1.09668e-05
1.088e-05
1.07873e-05
1.06862e-05
1.05737e-05
1.04458e-05
1.02984e-05
1.01284e-05
9.93613e-06
9.72319e-06
9.4991e-06
9.26952e-06
9.04375e-06
8.83297e-06
8.64473e-06
8.48277e-06
8.35265e-06
8.25937e-06
8.20788e-06
8.19743e-06
8.22167e-06
8.31308e-06
8.47849e-06
8.70632e-06
9.02856e-06
9.45882e-06
9.95552e-06
1.04731e-05
1.09496e-05
1.13227e-05
1.15696e-05
1.17035e-05
1.17653e-05
1.17912e-05
1.18023e-05
1.17995e-05
1.17941e-05
1.17857e-05
1.17744e-05
1.17598e-05
1.17421e-05
1.17213e-05
1.16972e-05
1.16698e-05
1.16392e-05
1.16058e-05
1.157e-05
1.15331e-05
1.14939e-05
1.14528e-05
1.14101e-05
1.13646e-05
1.13148e-05
1.12591e-05
1.11961e-05
1.11239e-05
1.10414e-05
1.09482e-05
1.08452e-05
1.07349e-05
1.06215e-05
1.05092e-05
1.04035e-05
1.03111e-05
1.02378e-05
1.01887e-05
1.01677e-05
1.01781e-05
1.02222e-05
1.03006e-05
1.04129e-05
1.05558e-05
1.07249e-05
1.09071e-05
1.10938e-05
1.12728e-05
1.14325e-05
1.15631e-05
1.16603e-05
1.17246e-05
1.17661e-05
1.179e-05
1.17985e-05
1.18012e-05
)
;

boundaryField
{
    AXIS
    {
        type            empty;
    }
    OUTLET
    {
        type            calculated;
        value           nonuniform List<scalar> 
25
(
4.30925e-06
4.31901e-06
4.34368e-06
4.384e-06
4.43987e-06
4.51201e-06
4.60084e-06
4.70857e-06
4.83445e-06
4.97805e-06
5.14296e-06
5.34588e-06
5.61188e-06
5.97344e-06
6.46078e-06
7.10732e-06
7.92982e-06
8.87511e-06
9.9641e-06
1.08107e-05
1.13443e-05
1.16258e-05
1.17488e-05
1.17912e-05
1.18012e-05
)
;
    }
    COFLOW
    {
        type            calculated;
        value           uniform 1.18025e-05;
    }
    PILOT
    {
        type            calculated;
        value           uniform 1.56801e-06;
    }
    FUEL
    {
        type            calculated;
        value           uniform 1.04958e-05;
    }
    WALL
    {
        type            calculated;
        value           nonuniform List<scalar> 
50
(
1.18023e-05
1.17995e-05
1.17941e-05
1.17857e-05
1.17744e-05
1.17598e-05
1.17421e-05
1.17213e-05
1.16972e-05
1.16698e-05
1.16392e-05
1.16058e-05
1.157e-05
1.15331e-05
1.14939e-05
1.14528e-05
1.14101e-05
1.13646e-05
1.13148e-05
1.12591e-05
1.11961e-05
1.11239e-05
1.10414e-05
1.09482e-05
1.08452e-05
1.07349e-05
1.06215e-05
1.05092e-05
1.04035e-05
1.03111e-05
1.02378e-05
1.01887e-05
1.01677e-05
1.01781e-05
1.02222e-05
1.03006e-05
1.04129e-05
1.05558e-05
1.07249e-05
1.09071e-05
1.10938e-05
1.12728e-05
1.14325e-05
1.15631e-05
1.16603e-05
1.17246e-05
1.17661e-05
1.179e-05
1.17985e-05
1.18012e-05
)
;
    }
    front
    {
        type            wedge;
    }
    back
    {
        type            wedge;
    }
}


// ************************************************************************* //
