/*--------------------------------*- C++ -*----------------------------------*\
| =========                 |                                                 |
| \\      /  F ield         | OpenFOAM: The Open Source CFD Toolbox           |
|  \\    /   O peration     | Version:  2.4.x                                 |
|   \\  /    A nd           | Web:      www.OpenFOAM.org                      |
|    \\/     M anipulation  |                                                 |
\*---------------------------------------------------------------------------*/
FoamFile
{
    version     2.0;
    format      ascii;
    class       volScalarField;
    location    "0.09";
    object      thermo:alpha;
}
// * * * * * * * * * * * * * * * * * * * * * * * * * * * * * * * * * * * * * //

dimensions      [1 -1 -1 0 0 0 0];

internalField   nonuniform List<scalar> 
1250
(
2.72204e-05
2.99464e-05
3.26827e-05
3.51689e-05
3.74832e-05
3.96232e-05
4.16192e-05
4.34911e-05
4.5335e-05
4.74237e-05
4.94541e-05
5.138e-05
5.32916e-05
5.51799e-05
5.70124e-05
5.88367e-05
6.05619e-05
6.21536e-05
6.3711e-05
6.52527e-05
6.67763e-05
6.82868e-05
6.97754e-05
7.1098e-05
7.25008e-05
7.39412e-05
7.53423e-05
7.66918e-05
7.8002e-05
7.92583e-05
8.04733e-05
8.16427e-05
8.27428e-05
8.37451e-05
8.47039e-05
8.56168e-05
8.64801e-05
8.73155e-05
8.81057e-05
8.88582e-05
8.96029e-05
9.02805e-05
9.09704e-05
9.16445e-05
9.20802e-05
9.2599e-05
9.29222e-05
8.91794e-05
7.6847e-05
5.56166e-05
2.73914e-05
3.04111e-05
3.32303e-05
3.57536e-05
3.80628e-05
4.01677e-05
4.21095e-05
4.3921e-05
4.59613e-05
4.8039e-05
5.00433e-05
5.19438e-05
5.38375e-05
5.56891e-05
5.75031e-05
5.93076e-05
6.10022e-05
6.25685e-05
6.41107e-05
6.56343e-05
6.71448e-05
6.86402e-05
7.01118e-05
7.14185e-05
7.27378e-05
7.41691e-05
7.55553e-05
7.6896e-05
7.81923e-05
7.94389e-05
8.06437e-05
8.18026e-05
8.29005e-05
8.38941e-05
8.48432e-05
8.57466e-05
8.6602e-05
8.74287e-05
8.82105e-05
8.89553e-05
8.9692e-05
9.03615e-05
9.10459e-05
9.17109e-05
9.21415e-05
9.26467e-05
9.29053e-05
8.91108e-05
7.67373e-05
5.5536e-05
2.7925e-05
3.16925e-05
3.46797e-05
3.72353e-05
3.94598e-05
4.139e-05
4.3291e-05
4.53643e-05
4.74176e-05
4.94352e-05
5.13741e-05
5.3216e-05
5.50378e-05
5.68234e-05
5.85996e-05
6.03475e-05
6.19701e-05
6.34876e-05
6.49894e-05
6.64774e-05
6.79545e-05
6.94117e-05
7.08459e-05
7.21124e-05
7.33165e-05
7.46685e-05
7.60264e-05
7.73463e-05
7.8614e-05
7.98404e-05
8.10225e-05
8.21576e-05
8.32473e-05
8.42229e-05
8.51478e-05
8.60295e-05
8.68679e-05
8.76737e-05
8.84389e-05
8.91663e-05
8.9889e-05
9.05404e-05
9.12123e-05
9.18554e-05
9.22747e-05
9.2752e-05
9.28665e-05
8.8951e-05
7.64705e-05
5.53333e-05
2.95078e-05
3.44852e-05
3.75435e-05
3.97734e-05
4.17588e-05
4.38368e-05
4.58369e-05
4.77741e-05
4.9705e-05
5.16147e-05
5.34219e-05
5.5142e-05
5.68585e-05
5.85632e-05
6.02469e-05
6.19022e-05
6.34211e-05
6.48688e-05
6.6313e-05
6.77455e-05
6.91598e-05
7.05571e-05
7.19228e-05
7.31346e-05
7.42819e-05
7.5406e-05
7.67308e-05
7.80083e-05
7.9244e-05
8.0437e-05
8.15811e-05
8.26794e-05
8.37379e-05
8.47081e-05
8.55996e-05
8.64526e-05
8.72615e-05
8.80391e-05
8.87766e-05
8.94813e-05
9.01758e-05
9.08033e-05
9.14503e-05
9.20634e-05
9.24673e-05
9.28928e-05
9.27828e-05
8.86886e-05
7.60444e-05
5.50054e-05
3.52912e-05
4.07763e-05
4.23757e-05
4.42551e-05
4.59784e-05
4.76179e-05
4.92988e-05
5.10124e-05
5.27528e-05
5.44971e-05
5.60999e-05
5.76753e-05
5.92433e-05
6.07987e-05
6.23574e-05
6.39172e-05
6.53088e-05
6.6677e-05
6.80322e-05
6.93787e-05
7.0705e-05
7.20125e-05
7.32978e-05
7.44413e-05
7.5519e-05
7.65713e-05
7.76435e-05
7.88776e-05
8.00638e-05
8.12043e-05
8.2303e-05
8.33607e-05
8.4371e-05
8.53359e-05
8.61877e-05
8.69988e-05
8.77687e-05
8.85087e-05
8.92115e-05
8.98851e-05
9.05414e-05
9.11378e-05
9.1753e-05
9.23222e-05
9.27007e-05
9.30607e-05
9.26607e-05
8.83292e-05
7.54537e-05
5.45579e-05
6.05598e-05
5.18585e-05
5.04113e-05
5.07573e-05
5.16603e-05
5.27642e-05
5.40359e-05
5.54344e-05
5.68398e-05
5.82151e-05
5.94497e-05
6.07266e-05
6.20223e-05
6.34449e-05
6.48822e-05
6.63089e-05
6.75642e-05
6.88156e-05
7.00637e-05
7.13033e-05
7.25209e-05
7.37229e-05
7.49069e-05
7.59793e-05
7.69721e-05
7.79535e-05
7.8914e-05
7.99203e-05
8.10477e-05
8.21351e-05
8.31711e-05
8.41646e-05
8.51197e-05
8.60364e-05
8.68866e-05
8.76495e-05
8.83703e-05
8.90672e-05
8.97249e-05
9.03563e-05
9.09677e-05
9.15255e-05
9.21008e-05
9.26149e-05
9.29561e-05
9.32365e-05
9.24919e-05
8.78668e-05
7.47235e-05
5.39911e-05
8.09675e-05
6.37716e-05
5.88375e-05
5.75404e-05
5.7466e-05
5.81008e-05
5.90017e-05
6.00573e-05
6.12096e-05
6.22898e-05
6.33037e-05
6.43665e-05
6.54507e-05
6.65515e-05
6.76819e-05
6.89384e-05
7.00651e-05
7.11912e-05
7.23153e-05
7.34324e-05
7.45238e-05
7.56113e-05
7.66962e-05
7.76911e-05
7.85905e-05
7.94835e-05
8.03646e-05
8.12321e-05
8.21693e-05
8.31784e-05
8.41471e-05
8.50766e-05
8.59671e-05
8.68193e-05
8.76318e-05
8.83709e-05
8.90413e-05
8.96828e-05
9.02912e-05
9.08742e-05
9.14358e-05
9.19465e-05
9.24711e-05
9.29218e-05
9.32085e-05
9.33842e-05
9.22524e-05
8.72763e-05
7.38562e-05
5.33101e-05
8.98657e-05
7.02869e-05
6.4277e-05
6.27255e-05
6.23528e-05
6.28583e-05
6.36282e-05
6.45245e-05
6.54992e-05
6.63427e-05
6.71705e-05
6.80384e-05
6.89378e-05
6.98437e-05
7.07608e-05
7.16452e-05
7.26397e-05
7.36362e-05
7.46357e-05
7.56293e-05
7.66172e-05
7.75988e-05
7.85753e-05
7.95021e-05
8.03123e-05
8.1108e-05
8.18964e-05
8.26737e-05
8.34416e-05
8.4313e-05
8.52003e-05
8.60511e-05
8.68684e-05
8.76516e-05
8.83977e-05
8.91105e-05
8.97478e-05
9.03292e-05
9.08784e-05
9.14058e-05
9.19053e-05
9.23661e-05
9.28292e-05
9.32054e-05
9.34293e-05
9.34772e-05
9.19215e-05
8.65658e-05
7.28811e-05
5.25075e-05
8.91341e-05
7.03316e-05
6.53138e-05
6.50525e-05
6.56545e-05
6.63551e-05
6.73355e-05
6.82929e-05
6.92268e-05
6.99738e-05
7.07137e-05
7.14662e-05
7.22325e-05
7.29993e-05
7.37772e-05
7.4499e-05
7.5229e-05
7.61091e-05
7.69966e-05
7.78777e-05
7.87471e-05
7.9614e-05
8.04784e-05
8.13234e-05
8.20396e-05
8.27425e-05
8.34404e-05
8.41248e-05
8.48058e-05
8.54752e-05
8.62837e-05
8.70538e-05
8.77901e-05
8.8497e-05
8.91665e-05
8.98079e-05
9.04213e-05
9.09679e-05
9.14541e-05
9.19213e-05
9.23572e-05
9.27594e-05
9.31535e-05
9.3443e-05
9.35955e-05
9.34805e-05
9.14923e-05
8.57237e-05
7.18108e-05
5.16008e-05
7.48926e-05
6.1106e-05
6.00987e-05
6.35304e-05
6.60835e-05
6.80217e-05
6.9539e-05
7.08815e-05
7.20663e-05
7.313e-05
7.40595e-05
7.49056e-05
7.56962e-05
7.64256e-05
7.71166e-05
7.75763e-05
7.80468e-05
7.87326e-05
7.9468e-05
8.01957e-05
8.09201e-05
8.16427e-05
8.23534e-05
8.30555e-05
8.36886e-05
8.43062e-05
8.492e-05
8.55195e-05
8.61127e-05
8.66985e-05
8.73399e-05
8.80258e-05
8.86806e-05
8.93065e-05
8.99052e-05
9.04703e-05
9.10103e-05
9.15192e-05
9.19817e-05
9.23819e-05
9.27499e-05
9.30856e-05
9.34004e-05
9.36026e-05
9.36606e-05
9.3276e-05
9.09492e-05
8.47439e-05
7.06664e-05
5.06051e-05
3.73458e-05
4.47374e-05
5.01831e-05
5.71826e-05
6.29192e-05
6.68075e-05
6.96143e-05
7.17831e-05
7.33012e-05
7.46394e-05
7.59709e-05
7.71361e-05
7.81267e-05
7.90223e-05
7.98123e-05
8.02241e-05
8.06229e-05
8.11789e-05
8.17615e-05
8.23424e-05
8.29227e-05
8.35076e-05
8.40848e-05
8.46617e-05
8.52175e-05
8.57575e-05
8.62852e-05
8.68071e-05
8.73239e-05
8.78319e-05
8.83447e-05
8.89468e-05
8.9517e-05
9.00639e-05
9.05806e-05
9.10723e-05
9.15324e-05
9.19668e-05
9.23629e-05
9.27312e-05
9.30475e-05
9.3314e-05
9.3535e-05
9.36486e-05
9.3586e-05
9.29199e-05
9.02676e-05
8.35938e-05
6.94153e-05
4.95094e-05
2.95943e-05
3.51479e-05
4.01606e-05
4.7117e-05
5.48326e-05
6.14285e-05
6.64772e-05
6.98995e-05
7.25575e-05
7.46216e-05
7.61773e-05
7.75283e-05
7.86597e-05
7.96451e-05
8.04675e-05
8.12859e-05
8.21111e-05
8.28265e-05
8.34252e-05
8.39934e-05
8.45337e-05
8.50634e-05
8.55801e-05
8.60855e-05
8.65762e-05
8.70478e-05
8.75105e-05
8.7964e-05
8.84084e-05
8.88431e-05
8.92705e-05
8.97803e-05
9.02641e-05
9.07257e-05
9.1162e-05
9.15702e-05
9.19539e-05
9.23023e-05
9.26201e-05
9.29103e-05
9.31492e-05
9.33564e-05
9.34799e-05
9.34842e-05
9.32627e-05
9.23342e-05
8.93437e-05
8.22153e-05
6.79469e-05
4.82262e-05
2.76118e-05
3.07519e-05
3.39425e-05
3.83351e-05
4.43181e-05
5.12862e-05
5.81669e-05
6.39078e-05
6.83083e-05
7.1595e-05
7.41474e-05
7.62824e-05
7.79828e-05
7.93756e-05
8.05427e-05
8.15647e-05
8.24601e-05
8.32616e-05
8.3995e-05
8.46804e-05
8.53161e-05
8.59186e-05
8.64911e-05
8.70459e-05
8.75412e-05
8.7979e-05
8.84031e-05
8.8814e-05
8.92112e-05
8.95925e-05
8.99698e-05
9.04033e-05
9.08131e-05
9.1192e-05
9.15454e-05
9.18753e-05
9.21706e-05
9.24361e-05
9.26675e-05
9.28671e-05
9.30157e-05
9.31273e-05
9.31351e-05
9.30232e-05
9.2636e-05
9.13889e-05
8.80662e-05
8.04505e-05
6.61312e-05
4.66432e-05
2.6972e-05
2.87443e-05
3.08059e-05
3.33061e-05
3.67218e-05
4.11785e-05
4.66755e-05
5.2791e-05
5.87018e-05
6.39956e-05
6.82938e-05
7.17455e-05
7.45001e-05
7.66958e-05
7.85335e-05
8.00938e-05
8.13867e-05
8.25273e-05
8.35164e-05
8.4403e-05
8.51954e-05
8.59177e-05
8.65831e-05
8.72081e-05
8.77443e-05
8.82153e-05
8.86499e-05
8.90625e-05
8.9452e-05
8.98163e-05
9.02149e-05
9.05902e-05
9.09364e-05
9.12475e-05
9.15304e-05
9.1782e-05
9.20056e-05
9.21885e-05
9.23375e-05
9.24453e-05
9.25034e-05
9.25042e-05
9.23995e-05
9.21666e-05
9.158e-05
8.99576e-05
8.6254e-05
7.81098e-05
6.38314e-05
4.46523e-05
2.67057e-05
2.77987e-05
2.91006e-05
3.07121e-05
3.26579e-05
3.51233e-05
3.82162e-05
4.2079e-05
4.66969e-05
5.18152e-05
5.70166e-05
6.17977e-05
6.59152e-05
6.9491e-05
7.24729e-05
7.49703e-05
7.7069e-05
7.88629e-05
8.04248e-05
8.18313e-05
8.3038e-05
8.41004e-05
8.50437e-05
8.58886e-05
8.65672e-05
8.71826e-05
8.77411e-05
8.82536e-05
8.87538e-05
8.92152e-05
8.96289e-05
8.99887e-05
9.0308e-05
9.05825e-05
9.08272e-05
9.10284e-05
9.11887e-05
9.13061e-05
9.13779e-05
9.141e-05
9.13794e-05
9.1285e-05
9.10629e-05
9.0703e-05
8.98711e-05
8.78844e-05
8.3702e-05
7.50448e-05
6.0865e-05
4.2224e-05
2.65675e-05
2.72924e-05
2.81561e-05
2.9187e-05
3.04412e-05
3.19768e-05
3.37032e-05
3.58765e-05
3.84586e-05
4.15526e-05
4.51222e-05
4.90951e-05
5.33542e-05
5.76229e-05
6.16455e-05
6.52775e-05
6.84837e-05
7.12998e-05
7.37282e-05
7.58527e-05
7.76966e-05
7.93271e-05
8.07678e-05
8.20173e-05
8.31193e-05
8.41305e-05
8.50378e-05
8.58382e-05
8.65193e-05
8.71199e-05
8.76236e-05
8.80623e-05
8.8437e-05
8.87395e-05
8.89909e-05
8.91808e-05
8.93367e-05
8.94384e-05
8.94753e-05
8.94602e-05
8.9373e-05
8.91964e-05
8.88839e-05
8.83631e-05
8.7254e-05
8.49309e-05
8.03414e-05
7.11161e-05
5.69184e-05
3.938e-05
2.64838e-05
2.69881e-05
2.7585e-05
2.82845e-05
2.91064e-05
3.00792e-05
3.12402e-05
3.25806e-05
3.40554e-05
3.5825e-05
3.78433e-05
4.0085e-05
4.27042e-05
4.56624e-05
4.89095e-05
5.23725e-05
5.5914e-05
5.94021e-05
6.27124e-05
6.57709e-05
6.85238e-05
7.09826e-05
7.31873e-05
7.51398e-05
7.6871e-05
7.8393e-05
7.97275e-05
8.08941e-05
8.19016e-05
8.27672e-05
8.34982e-05
8.41344e-05
8.4659e-05
8.51e-05
8.54654e-05
8.57523e-05
8.59745e-05
8.61253e-05
8.62076e-05
8.62314e-05
8.61435e-05
8.59318e-05
8.55693e-05
8.49124e-05
8.35698e-05
8.10433e-05
7.57843e-05
6.61053e-05
5.18124e-05
3.62631e-05
2.64272e-05
2.67877e-05
2.7211e-05
2.77021e-05
2.82692e-05
2.89239e-05
2.9681e-05
3.05583e-05
3.15773e-05
3.272e-05
3.38647e-05
3.51837e-05
3.67028e-05
3.84135e-05
4.0291e-05
4.24244e-05
4.4777e-05
4.73716e-05
5.01216e-05
5.30004e-05
5.59362e-05
5.88563e-05
6.16706e-05
6.431e-05
6.67474e-05
6.898e-05
7.09773e-05
7.27387e-05
7.42732e-05
7.5593e-05
7.67209e-05
7.77044e-05
7.85487e-05
7.92818e-05
7.98849e-05
8.03964e-05
8.08221e-05
8.11466e-05
8.13802e-05
8.15237e-05
8.15044e-05
8.13325e-05
8.09582e-05
8.02063e-05
7.86977e-05
7.57916e-05
6.97652e-05
5.97665e-05
4.55367e-05
3.3223e-05
2.63863e-05
2.66463e-05
2.69501e-05
2.73009e-05
2.77033e-05
2.81626e-05
2.86856e-05
2.92799e-05
2.99451e-05
3.0678e-05
3.15021e-05
3.24283e-05
3.33889e-05
3.44057e-05
3.55486e-05
3.68288e-05
3.82606e-05
3.97349e-05
4.13923e-05
4.3248e-05
4.52824e-05
4.75071e-05
4.98718e-05
5.2326e-05
5.48162e-05
5.72679e-05
5.95993e-05
6.17622e-05
6.37337e-05
6.55067e-05
6.71097e-05
6.8548e-05
6.9838e-05
7.09942e-05
7.20177e-05
7.29208e-05
7.36924e-05
7.43343e-05
7.48468e-05
7.5204e-05
7.5346e-05
7.52171e-05
7.48425e-05
7.40197e-05
7.22653e-05
6.87083e-05
6.19856e-05
5.17411e-05
3.88487e-05
3.02738e-05
2.63553e-05
2.65416e-05
2.67592e-05
2.70108e-05
2.72994e-05
2.76281e-05
2.80006e-05
2.8409e-05
2.88629e-05
2.93661e-05
2.99229e-05
3.05384e-05
3.12188e-05
3.19708e-05
3.28027e-05
3.36483e-05
3.44796e-05
3.53956e-05
3.64202e-05
3.75679e-05
3.88442e-05
4.0247e-05
4.18147e-05
4.35351e-05
4.53862e-05
4.73642e-05
4.94109e-05
5.14312e-05
5.33961e-05
5.52949e-05
5.70957e-05
5.87982e-05
6.038e-05
6.1849e-05
6.31847e-05
6.43757e-05
6.54102e-05
6.62895e-05
6.70026e-05
6.75002e-05
6.77312e-05
6.76121e-05
6.71734e-05
6.61431e-05
6.39216e-05
5.95188e-05
5.22427e-05
4.2313e-05
3.31418e-05
2.83015e-05
2.6331e-05
2.64612e-05
2.66145e-05
2.6793e-05
2.69972e-05
2.72292e-05
2.74904e-05
2.7782e-05
2.81055e-05
2.84622e-05
2.88542e-05
2.92837e-05
2.97536e-05
3.02673e-05
3.08293e-05
3.14061e-05
3.20282e-05
3.27099e-05
3.34395e-05
3.41742e-05
3.50012e-05
3.59349e-05
3.69887e-05
3.81466e-05
3.94162e-05
4.08173e-05
4.2337e-05
4.39426e-05
4.55857e-05
4.72333e-05
4.88621e-05
5.04475e-05
5.19712e-05
5.34099e-05
5.47472e-05
5.59676e-05
5.70329e-05
5.79457e-05
5.86673e-05
5.90733e-05
5.91435e-05
5.8857e-05
5.81153e-05
5.64877e-05
5.33776e-05
4.83752e-05
4.13053e-05
3.41064e-05
2.92097e-05
2.7177e-05
2.63113e-05
2.63968e-05
2.64995e-05
2.66212e-05
2.67631e-05
2.69262e-05
2.71113e-05
2.73189e-05
2.75496e-05
2.78039e-05
2.80828e-05
2.83875e-05
2.87192e-05
2.90736e-05
2.94366e-05
2.98271e-05
3.02496e-05
3.07102e-05
3.12166e-05
3.17792e-05
3.24107e-05
3.31e-05
3.38099e-05
3.46044e-05
3.55159e-05
3.65453e-05
3.76787e-05
3.89035e-05
4.01885e-05
4.14884e-05
4.27777e-05
4.40321e-05
4.52305e-05
4.63511e-05
4.73735e-05
4.82769e-05
4.90342e-05
4.96215e-05
4.9989e-05
5.00415e-05
4.97559e-05
4.90339e-05
4.75504e-05
4.51629e-05
4.17253e-05
3.73421e-05
3.27224e-05
2.91413e-05
2.73569e-05
2.66166e-05
2.62952e-05
2.63459e-05
2.64102e-05
2.64893e-05
2.65841e-05
2.66949e-05
2.68221e-05
2.6966e-05
2.71267e-05
2.73045e-05
2.74997e-05
2.77085e-05
2.79264e-05
2.81593e-05
2.84079e-05
2.86742e-05
2.8961e-05
2.92727e-05
2.96147e-05
2.99835e-05
3.03781e-05
3.08293e-05
3.13531e-05
3.19619e-05
3.26611e-05
3.34395e-05
3.42717e-05
3.51743e-05
3.61142e-05
3.70572e-05
3.79769e-05
3.88477e-05
3.96501e-05
4.03539e-05
4.09372e-05
4.13799e-05
4.16474e-05
4.17036e-05
4.15897e-05
4.11859e-05
4.03505e-05
3.90896e-05
3.73627e-05
3.52041e-05
3.27317e-05
3.01673e-05
2.82453e-05
2.71357e-05
2.66034e-05
2.63784e-05
2.62822e-05
2.63053e-05
2.63408e-05
2.63871e-05
2.64443e-05
2.65128e-05
2.65931e-05
2.66839e-05
2.67846e-05
2.6896e-05
2.70178e-05
2.715e-05
2.72925e-05
2.74448e-05
2.76069e-05
2.77792e-05
2.79634e-05
2.81501e-05
2.83519e-05
2.85749e-05
2.88269e-05
2.91186e-05
2.94616e-05
2.98667e-05
3.03378e-05
3.08761e-05
3.14624e-05
3.20855e-05
3.27216e-05
3.3338e-05
3.39079e-05
3.44135e-05
3.48305e-05
3.51358e-05
3.5307e-05
3.53428e-05
3.52632e-05
3.49637e-05
3.44333e-05
3.37272e-05
3.27739e-05
3.15774e-05
3.02946e-05
2.90581e-05
2.80005e-05
2.72209e-05
2.67268e-05
2.64656e-05
2.63467e-05
2.62971e-05
2.62758e-05
2.62812e-05
2.62916e-05
2.63076e-05
2.63293e-05
2.63571e-05
2.63911e-05
2.64311e-05
2.64777e-05
2.65308e-05
2.65902e-05
2.66554e-05
2.67256e-05
2.67984e-05
2.6876e-05
2.69578e-05
2.70432e-05
2.71347e-05
2.72356e-05
2.73492e-05
2.74788e-05
2.76286e-05
2.78017e-05
2.79997e-05
2.82216e-05
2.8463e-05
2.87154e-05
2.89694e-05
2.92124e-05
2.94282e-05
2.96015e-05
2.97188e-05
2.97695e-05
2.9745e-05
2.96403e-05
2.94551e-05
2.91935e-05
2.88664e-05
2.84881e-05
2.80904e-05
2.76933e-05
2.73221e-05
2.69988e-05
2.67393e-05
2.65493e-05
2.64248e-05
2.6345e-05
2.62994e-05
2.62832e-05
2.6278e-05
)
;

boundaryField
{
    AXIS
    {
        type            empty;
    }
    OUTLET
    {
        type            calculated;
        value           nonuniform List<scalar> 
25
(
5.56166e-05
5.5536e-05
5.53333e-05
5.50054e-05
5.45579e-05
5.39911e-05
5.33101e-05
5.25075e-05
5.16008e-05
5.06051e-05
4.95094e-05
4.82262e-05
4.66432e-05
4.46523e-05
4.2224e-05
3.938e-05
3.62631e-05
3.3223e-05
3.02738e-05
2.83015e-05
2.7177e-05
2.66166e-05
2.63784e-05
2.62971e-05
2.6278e-05
)
;
    }
    COFLOW
    {
        type            calculated;
        value           uniform 2.62756e-05;
    }
    PILOT
    {
        type            calculated;
        value           uniform 0.000100126;
    }
    FUEL
    {
        type            calculated;
        value           uniform 2.61542e-05;
    }
    WALL
    {
        type            calculated;
        value           nonuniform List<scalar> 
50
(
2.62758e-05
2.62812e-05
2.62916e-05
2.63076e-05
2.63293e-05
2.63571e-05
2.63911e-05
2.64311e-05
2.64777e-05
2.65308e-05
2.65902e-05
2.66554e-05
2.67256e-05
2.67984e-05
2.6876e-05
2.69578e-05
2.70432e-05
2.71347e-05
2.72356e-05
2.73492e-05
2.74788e-05
2.76286e-05
2.78017e-05
2.79997e-05
2.82216e-05
2.8463e-05
2.87154e-05
2.89694e-05
2.92124e-05
2.94282e-05
2.96015e-05
2.97188e-05
2.97695e-05
2.9745e-05
2.96403e-05
2.94551e-05
2.91935e-05
2.88664e-05
2.84881e-05
2.80904e-05
2.76933e-05
2.73221e-05
2.69988e-05
2.67393e-05
2.65493e-05
2.64248e-05
2.6345e-05
2.62994e-05
2.62832e-05
2.6278e-05
)
;
    }
    front
    {
        type            wedge;
    }
    back
    {
        type            wedge;
    }
}


// ************************************************************************* //
