/*--------------------------------*- C++ -*----------------------------------*\
| =========                 |                                                 |
| \\      /  F ield         | OpenFOAM: The Open Source CFD Toolbox           |
|  \\    /   O peration     | Version:  2.4.x                                 |
|   \\  /    A nd           | Web:      www.OpenFOAM.org                      |
|    \\/     M anipulation  |                                                 |
\*---------------------------------------------------------------------------*/
FoamFile
{
    version     2.0;
    format      ascii;
    class       volVectorField;
    location    "0.09";
    object      U;
}
// * * * * * * * * * * * * * * * * * * * * * * * * * * * * * * * * * * * * * //

dimensions      [0 1 -1 0 0 0 0];

internalField   nonuniform List<vector> 
1250
(
(10.4548 -0.0355142 -7.99362e-15)
(11.9039 0.0624615 -4.43248e-14)
(12.6127 0.128731 -8.64565e-14)
(12.9534 0.157042 -1.81727e-13)
(13.0636 0.147698 -1.40698e-13)
(13.024 0.1667 1.69291e-14)
(12.9165 0.112119 1.24471e-13)
(12.7867 0.14464 1.08384e-13)
(12.6376 0.105209 1.96461e-13)
(12.5312 0.140898 3.99533e-14)
(12.3755 0.135391 1.53312e-13)
(12.2253 0.0859251 2.74481e-13)
(12.0945 0.115368 4.01835e-13)
(11.9433 0.0756778 1.96888e-13)
(11.8242 0.0986524 4.95448e-13)
(11.6919 0.065229 1.68892e-12)
(11.5713 0.0833698 2.60164e-13)
(11.4363 0.053992 1.63105e-12)
(11.3165 0.0700745 -3.67746e-12)
(11.1934 0.0674303 2.11136e-11)
(11.0737 0.0445914 7.98531e-12)
(10.9819 0.0574568 2.39437e-12)
(10.8659 0.054598 1.84171e-12)
(10.7585 0.0342609 9.40692e-13)
(10.6476 0.0505665 1.71578e-12)
(10.5349 0.0341783 2.40622e-12)
(10.4403 0.0438859 1.86562e-12)
(10.3357 0.0294032 1.79884e-12)
(10.2453 0.037774 1.53089e-12)
(10.1461 0.0253877 6.86034e-13)
(10.059 0.0320988 1.37921e-12)
(9.96817 0.0297365 2.36073e-12)
(9.87677 0.0244036 1.39169e-12)
(9.78263 0.0246004 8.08787e-13)
(9.68636 0.0204803 5.87807e-13)
(9.59064 0.0213274 6.95203e-12)
(9.49288 0.0183895 -2.89208e-11)
(9.39693 0.0183721 -1.8197e-11)
(9.29265 0.0170774 8.43349e-11)
(9.19527 0.0144502 2.02126e-11)
(9.07849 0.0159117 1.08348e-11)
(8.95879 0.0154893 4.87937e-12)
(8.81843 0.0179821 1.25201e-11)
(8.64085 0.019953 -5.96859e-11)
(8.37222 0.0253405 -1.11186e-11)
(8.03546 0.0383232 -4.07812e-12)
(7.28195 0.0495599 -5.93042e-13)
(6.07074 0.0452954 1.16976e-13)
(4.19558 0.0221868 -6.35745e-13)
(2.89487 0.0296431 1.14471e-12)
(10.5667 -0.0966208 -2.19311e-14)
(12.0694 0.192944 -1.32043e-13)
(12.6795 0.356205 -2.53073e-13)
(12.9556 0.427584 -5.18247e-13)
(13.0208 0.462523 -3.01162e-13)
(12.9601 0.436621 1.16509e-13)
(12.831 0.401115 3.01141e-13)
(12.6836 0.378901 3.13868e-13)
(12.552 0.388663 4.21166e-13)
(12.4341 0.369402 8.06834e-14)
(12.2893 0.342896 4.83586e-13)
(12.1367 0.309798 6.362e-13)
(12.0008 0.295658 1.17811e-12)
(11.859 0.274582 3.94644e-13)
(11.7398 0.253015 1.64085e-12)
(11.6169 0.237276 3.66576e-12)
(11.4939 0.212464 5.59807e-13)
(11.3636 0.196065 3.0323e-12)
(11.2408 0.181033 -8.23839e-12)
(11.1296 0.169293 3.27465e-11)
(11.016 0.163449 1.21602e-11)
(10.918 0.148877 5.389e-12)
(10.8134 0.13704 5.00395e-12)
(10.7049 0.125311 1.89568e-12)
(10.5909 0.127681 5.16536e-12)
(10.4854 0.126293 5.06039e-12)
(10.3889 0.112095 5.17641e-12)
(10.2913 0.108547 3.6988e-12)
(10.1986 0.0965716 4.20986e-12)
(10.1052 0.0934735 1.35354e-12)
(10.0144 0.0831109 4.10289e-12)
(9.92624 0.0770637 6.51434e-12)
(9.83597 0.0724865 2.72351e-12)
(9.74331 0.0654088 1.97612e-12)
(9.64823 0.06245 1.86361e-12)
(9.55362 0.0570338 1.45587e-11)
(9.45678 0.0542334 -1.96619e-11)
(9.36224 0.0508761 -3.22017e-11)
(9.25884 0.0474152 6.83125e-11)
(9.16293 0.0458608 3.38521e-11)
(9.04778 0.0454089 2.15758e-11)
(8.92922 0.0460781 9.95177e-12)
(8.78958 0.0483896 2.76834e-11)
(8.61526 0.0556865 -6.77773e-11)
(8.34825 0.0648879 -2.58159e-11)
(8.01897 0.0965219 -1.08552e-11)
(7.28014 0.127455 -1.46767e-12)
(6.08284 0.123247 3.37546e-13)
(4.22819 0.077325 -1.32092e-12)
(2.93164 0.0800928 3.172e-12)
(10.7111 -0.154516 -3.38883e-14)
(12.2891 0.437977 -2.66055e-13)
(12.7426 0.655942 -4.85969e-13)
(12.889 0.726175 -1.06177e-12)
(12.8662 0.72022 -5.29062e-13)
(12.7611 0.685615 6.50038e-13)
(12.5965 0.656568 7.57332e-13)
(12.4568 0.630203 5.71082e-13)
(12.3308 0.609855 7.92126e-13)
(12.2122 0.580339 -3.03271e-15)
(12.0764 0.540908 1.12808e-12)
(11.9289 0.494367 1.48512e-12)
(11.7947 0.460713 2.23495e-12)
(11.6684 0.423145 6.23829e-13)
(11.5558 0.393138 4.1556e-12)
(11.4477 0.363945 7.16801e-12)
(11.3279 0.331649 -9.97842e-14)
(11.2037 0.302244 3.65929e-12)
(11.0889 0.281751 -7.9406e-12)
(10.984 0.264248 2.45284e-11)
(10.8803 0.245664 9.83672e-12)
(10.7866 0.230949 4.96837e-12)
(10.6922 0.214099 7.40878e-12)
(10.5852 0.197955 3.0064e-12)
(10.4732 0.193937 1.04151e-11)
(10.3699 0.188539 9.20916e-12)
(10.2777 0.174519 8.25131e-12)
(10.1861 0.161289 6.2476e-12)
(10.0965 0.150489 6.53178e-12)
(10.0074 0.139196 2.01499e-12)
(9.91972 0.129742 8.3332e-12)
(9.83348 0.120465 1.11687e-11)
(9.74647 0.109757 3.56772e-12)
(9.65696 0.101071 2.99025e-12)
(9.56452 0.094164 6.22683e-12)
(9.47246 0.0881264 2.06556e-11)
(9.37821 0.0822551 -7.95835e-12)
(9.28605 0.0779652 -3.56285e-11)
(9.18527 0.0733449 7.90654e-11)
(9.09139 0.0707929 4.65468e-11)
(8.97845 0.070081 3.33475e-11)
(8.86312 0.0695634 1.76579e-11)
(8.72564 0.0750599 3.53487e-11)
(8.55422 0.0851461 -4.33295e-11)
(8.294 0.101584 -3.08979e-11)
(7.97068 0.149263 -1.44285e-11)
(7.24475 0.198339 -1.03283e-12)
(6.07146 0.185825 6.19142e-13)
(4.22208 0.125501 -2.3952e-12)
(2.93298 0.126902 2.76325e-12)
(10.6625 0.116574 -4.78009e-14)
(12.5153 0.917702 -5.61114e-13)
(12.6689 1.09466 -9.41219e-13)
(12.5964 1.08898 -2.4244e-12)
(12.4657 1.05874 -2.58648e-13)
(12.3134 1.00213 2.75113e-12)
(12.1639 0.952162 1.39283e-12)
(12.0347 0.90567 7.968e-13)
(11.9217 0.853691 1.17225e-12)
(11.8217 0.797786 -3.7845e-13)
(11.7038 0.738628 2.78894e-12)
(11.5799 0.674591 3.02453e-12)
(11.4654 0.625991 3.62545e-12)
(11.3606 0.577831 9.54703e-13)
(11.2653 0.535059 9.99562e-12)
(11.1741 0.49483 1.06263e-11)
(11.0677 0.450564 -4.21409e-12)
(10.957 0.412426 3.08764e-12)
(10.8559 0.384118 -5.3865e-12)
(10.7619 0.360263 1.14858e-11)
(10.6698 0.337233 6.02034e-13)
(10.5841 0.315256 2.87335e-12)
(10.4992 0.291137 1.12913e-11)
(10.4013 0.267364 4.59954e-12)
(10.295 0.259882 2.02425e-11)
(10.1975 0.254543 1.25708e-11)
(10.1095 0.240341 1.03908e-11)
(10.0251 0.22233 7.99082e-12)
(9.94126 0.206515 7.9057e-12)
(9.85795 0.192263 2.51286e-12)
(9.77516 0.178155 1.54624e-11)
(9.69349 0.165569 1.50625e-11)
(9.61095 0.151868 8.60427e-13)
(9.52623 0.139008 4.60625e-12)
(9.43811 0.12975 1.56573e-11)
(9.34994 0.121077 2.591e-11)
(9.25953 0.113347 6.72027e-12)
(9.17098 0.107178 -2.38478e-11)
(9.07357 0.100782 6.27213e-11)
(8.98353 0.0974846 4.78457e-11)
(8.87393 0.0960802 3.86526e-11)
(8.76295 0.0960586 2.35748e-11)
(8.62799 0.103331 3.5084e-11)
(8.46102 0.117233 -3.47551e-12)
(8.2097 0.139436 -3.19108e-11)
(7.89357 0.202351 -1.3945e-11)
(7.17884 0.267482 1.39473e-12)
(6.02576 0.251827 9.23246e-13)
(4.18653 0.172544 -3.51983e-12)
(2.92559 0.175719 1.24643e-12)
(10.006 0.754151 -8.38169e-14)
(12.1696 1.79149 -1.56156e-12)
(12.0013 1.67003 -1.52529e-12)
(11.6923 1.51572 -1.06801e-12)
(11.5895 1.43074 -9.70837e-13)
(11.4808 1.32584 5.72024e-13)
(11.3959 1.22548 8.78977e-13)
(11.3342 1.13853 7.06145e-13)
(11.2855 1.06202 1.47743e-12)
(11.2361 0.985275 -1.02681e-12)
(11.163 0.904925 6.95676e-12)
(11.0793 0.82876 5.31125e-12)
(11.0022 0.766752 5.06011e-12)
(10.9288 0.707682 2.83515e-12)
(10.862 0.656174 5.86931e-12)
(10.7967 0.60677 9.34779e-12)
(10.7118 0.553531 2.15128e-12)
(10.6222 0.509489 4.97613e-12)
(10.5402 0.475016 -3.12029e-12)
(10.462 0.445315 9.06914e-12)
(10.3849 0.416569 4.9583e-12)
(10.3115 0.389203 6.30571e-12)
(10.239 0.359045 -2.04689e-12)
(10.1534 0.330126 9.88343e-12)
(10.0586 0.314853 1.24182e-11)
(9.96988 0.306718 1.15597e-11)
(9.8876 0.296579 1.08869e-11)
(9.81032 0.277643 8.70068e-12)
(9.73497 0.257177 7.93315e-12)
(9.65918 0.239195 4.50493e-12)
(9.5834 0.22201 6.64631e-12)
(9.50815 0.206459 1.48222e-11)
(9.43162 0.190204 1.86784e-11)
(9.35322 0.173955 1.03449e-11)
(9.27106 0.161239 8.7591e-12)
(9.18827 0.150809 3.15798e-11)
(9.10298 0.141107 4.93973e-12)
(9.01924 0.133535 -2.87019e-11)
(8.92686 0.125766 5.14038e-11)
(8.84137 0.121658 4.41539e-11)
(8.73568 0.120006 3.90861e-11)
(8.63067 0.120018 2.68198e-11)
(8.49878 0.129493 3.29598e-11)
(8.33778 0.146526 1.38492e-11)
(8.09688 0.17418 -1.09375e-11)
(7.78956 0.250393 -8.92639e-12)
(7.08366 0.329646 -5.31111e-12)
(5.95348 0.314025 9.75959e-13)
(4.12886 0.216363 -4.7958e-12)
(2.90839 0.221816 -6.77669e-13)
(7.58799 0.409908 -3.66271e-13)
(8.47355 2.30866 -3.8179e-12)
(9.42442 1.87873 -2.38821e-12)
(9.71913 1.76306 -2.0591e-12)
(10.0005 1.61262 -1.5362e-12)
(10.1527 1.48542 -1.6754e-13)
(10.2661 1.38016 6.81565e-13)
(10.3492 1.28608 7.79712e-13)
(10.4134 1.19967 1.74463e-12)
(10.4471 1.10889 -8.6509e-13)
(10.4425 1.01956 6.76352e-12)
(10.4233 0.938081 6.21651e-12)
(10.4004 0.873206 6.17002e-12)
(10.375 0.813739 4.40854e-12)
(10.3491 0.756485 5.53641e-12)
(10.3165 0.69872 8.68396e-12)
(10.261 0.63811 4.1884e-12)
(10.1998 0.590657 6.14139e-12)
(10.1428 0.551407 -2.39759e-12)
(10.0857 0.517101 1.48768e-11)
(10.0278 0.483828 8.46043e-12)
(9.97082 0.452138 7.3809e-12)
(9.91383 0.417611 3.15305e-12)
(9.84374 0.384692 4.87975e-12)
(9.7635 0.36464 8.94412e-12)
(9.68709 0.350415 1.05085e-11)
(9.61498 0.339594 1.06857e-11)
(9.54566 0.324768 8.32069e-12)
(9.47947 0.30338 6.92119e-12)
(9.41366 0.281559 5.40272e-12)
(9.34686 0.261328 2.32048e-12)
(9.27991 0.243122 2.01665e-11)
(9.21099 0.225126 1.70839e-11)
(9.14017 0.206457 1.14089e-11)
(9.06567 0.190283 9.28252e-12)
(8.98991 0.177436 2.15177e-11)
(8.91095 0.166248 4.21756e-12)
(8.83322 0.157425 -2.60416e-11)
(8.74703 0.148312 4.37491e-11)
(8.66701 0.14368 3.87557e-11)
(8.5663 0.141718 3.65348e-11)
(8.4683 0.142126 2.73892e-11)
(8.33992 0.153608 3.05933e-11)
(8.18662 0.173426 1.96215e-11)
(7.95644 0.205842 6.91504e-13)
(7.65947 0.293142 -4.07e-12)
(6.95742 0.383856 -1.42405e-12)
(5.857 0.372596 1.46705e-12)
(4.05355 0.255624 -5.16754e-12)
(2.88473 0.266087 -2.19656e-12)
(4.00899 -0.651257 -1.7882e-12)
(5.18952 0.378312 -3.67058e-12)
(6.5679 1.00296 -2.78114e-12)
(7.43998 1.36523 -3.28275e-12)
(8.09041 1.42485 -1.56365e-12)
(8.53506 1.41339 5.49473e-13)
(8.88293 1.3688 1.3855e-12)
(9.14142 1.30689 1.35325e-12)
(9.34515 1.23423 2.19418e-12)
(9.48647 1.14816 -4.50433e-13)
(9.57684 1.06358 9.03275e-12)
(9.63892 0.99119 7.61777e-12)
(9.68478 0.932598 7.48319e-12)
(9.71363 0.877856 5.46784e-12)
(9.73333 0.823303 7.64065e-12)
(9.74046 0.764285 9.27389e-12)
(9.72211 0.699403 3.79877e-12)
(9.69606 0.650577 5.87609e-12)
(9.66916 0.608981 -1.69514e-12)
(9.63799 0.571563 1.32842e-11)
(9.60315 0.535333 7.91686e-12)
(9.56634 0.501456 6.54151e-12)
(9.52799 0.464645 6.86111e-12)
(9.47668 0.428777 4.44722e-12)
(9.4136 0.404992 9.33744e-12)
(9.35183 0.387019 1.06619e-11)
(9.29314 0.372542 1.01215e-11)
(9.23524 0.359024 6.54331e-12)
(9.17903 0.340946 5.08244e-12)
(9.12401 0.317801 4.68654e-12)
(9.06842 0.294705 2.17663e-12)
(9.01184 0.274377 1.94345e-11)
(8.95228 0.254856 1.31924e-11)
(8.89036 0.234996 9.45343e-12)
(8.82464 0.216401 1.25285e-11)
(8.75745 0.200608 1.44669e-11)
(8.68623 0.187866 3.67642e-12)
(8.61559 0.178081 -1.89662e-11)
(8.53663 0.167863 3.79078e-11)
(8.46294 0.162909 3.28456e-11)
(8.36825 0.160802 3.23677e-11)
(8.27807 0.161726 2.58283e-11)
(8.15355 0.175059 2.82107e-11)
(8.00963 0.197214 1.91118e-11)
(7.79006 0.233913 6.00731e-12)
(7.50178 0.330741 -5.29862e-13)
(6.80025 0.430381 1.69763e-12)
(5.73939 0.423835 2.02288e-12)
(3.96314 0.289477 -4.66471e-12)
(2.85467 0.308438 -3.23126e-12)
(2.80944 -2.40384 -5.08794e-12)
(2.81778 -0.866664 -3.42664e-12)
(4.13453 0.119118 -2.66216e-12)
(5.26039 0.743653 -5.084e-12)
(6.17283 1.02152 3.02487e-13)
(6.85145 1.15825 3.63615e-12)
(7.40141 1.20524 3.18415e-12)
(7.82676 1.20551 2.37848e-12)
(8.16685 1.17179 2.83811e-12)
(8.41921 1.11002 6.72284e-13)
(8.60761 1.04738 6.36902e-12)
(8.75476 0.989967 9.02049e-12)
(8.87312 0.9394 8.94575e-12)
(8.96507 0.889357 6.17976e-12)
(9.03821 0.842063 1.22673e-11)
(9.08544 0.793744 9.66396e-12)
(9.10768 0.734206 -2.95988e-13)
(9.1217 0.685842 4.62344e-12)
(9.12885 0.644664 -8.11427e-13)
(9.12713 0.60694 1.04622e-11)
(9.11881 0.570393 4.63192e-12)
(9.10519 0.536226 5.28676e-12)
(9.08767 0.499134 9.76315e-12)
(9.05742 0.461711 4.46374e-12)
(9.01382 0.434938 1.30558e-11)
(8.96902 0.414576 1.15531e-11)
(8.92582 0.397389 8.37836e-12)
(8.88209 0.382158 2.61763e-12)
(8.83826 0.366678 2.6139e-12)
(8.79496 0.345916 3.16609e-12)
(8.75185 0.321268 5.98119e-12)
(8.70745 0.299467 1.30808e-11)
(8.65893 0.278868 5.68982e-12)
(8.60732 0.258239 6.82037e-12)
(8.55146 0.238594 1.81812e-11)
(8.49396 0.220674 7.83185e-12)
(8.43177 0.205677 6.20025e-12)
(8.36936 0.194931 -7.68473e-12)
(8.29846 0.184026 3.10237e-11)
(8.2319 0.178979 2.63784e-11)
(8.14429 0.17668 2.7411e-11)
(8.06236 0.178525 2.28706e-11)
(7.94216 0.193209 2.5665e-11)
(7.80916 0.21749 1.46162e-11)
(7.59902 0.258297 7.24496e-12)
(7.31994 0.360475 1.63239e-12)
(6.61478 0.470166 4.74884e-12)
(5.60246 0.466533 2.38026e-12)
(3.86093 0.317061 -3.58485e-12)
(2.82012 0.348692 -3.77714e-12)
(2.66932 -1.45592 -2.95419e-12)
(1.60521 -1.13643 -2.18906e-12)
(2.39963 -0.576231 -2.01289e-12)
(3.50381 0.0889092 -3.34542e-12)
(4.4931 0.522829 1.69904e-12)
(5.29493 0.794237 4.7755e-12)
(5.96919 0.938897 5.02346e-12)
(6.51603 1.00933 3.28258e-12)
(6.96278 1.02354 3.63777e-12)
(7.31152 0.998953 1.86549e-12)
(7.58977 0.968581 9.19051e-12)
(7.81638 0.934675 1.34449e-11)
(8.00384 0.900957 1.0463e-11)
(8.15672 0.863761 7.30842e-12)
(8.28402 0.825084 1.07364e-11)
(8.3757 0.788072 4.80741e-12)
(8.43701 0.741786 2.64953e-12)
(8.49101 0.699052 4.85299e-12)
(8.53486 0.660534 3.57953e-13)
(8.56458 0.624867 1.16487e-11)
(8.58431 0.589825 7.13447e-12)
(8.59552 0.556503 7.24334e-12)
(8.60055 0.520911 3.46307e-12)
(8.59251 0.483058 3.82337e-12)
(8.57019 0.453517 8.63692e-12)
(8.54443 0.431734 1.06797e-11)
(8.51849 0.413121 3.92241e-12)
(8.49093 0.396331 -3.88658e-12)
(8.46181 0.380923 3.75261e-13)
(8.4315 0.363417 2.74418e-12)
(8.40169 0.340706 2.11615e-12)
(8.37102 0.317585 8.52288e-12)
(8.33499 0.296523 6.74621e-12)
(8.29495 0.275452 7.39481e-12)
(8.25004 0.255444 1.28592e-11)
(8.20297 0.236918 6.32879e-12)
(8.15074 0.220268 4.72298e-12)
(8.09769 0.207827 -6.31668e-12)
(8.03553 0.196322 1.96737e-11)
(7.97683 0.191515 1.97107e-11)
(7.89723 0.189194 2.22887e-11)
(7.82372 0.192293 1.92319e-11)
(7.70789 0.208109 2.26079e-11)
(7.58753 0.234089 6.39664e-12)
(7.38477 0.27881 6.35842e-12)
(7.11218 0.389051 2.90106e-12)
(6.40859 0.501339 4.20815e-12)
(5.44823 0.500994 2.30036e-12)
(3.7507 0.336556 -3.03642e-12)
(2.78108 0.38667 -3.95888e-12)
(2.14522 -1.04564 -3.88484e-13)
(1.22757 -0.976866 -8.3966e-13)
(1.52633 -0.815211 -1.14178e-12)
(2.27632 -0.362026 -1.93499e-12)
(3.16895 0.0767359 -1.90478e-14)
(3.9672 0.410299 1.57967e-12)
(4.68001 0.625313 2.48495e-12)
(5.28741 0.759883 3.16894e-12)
(5.79972 0.826271 4.72226e-12)
(6.21992 0.845154 3.72233e-12)
(6.56971 0.849359 6.73423e-12)
(6.86161 0.842855 9.68702e-12)
(7.10833 0.829914 9.64234e-12)
(7.31586 0.808395 7.52822e-12)
(7.49288 0.780922 9.47861e-12)
(7.62136 0.751632 6.91109e-12)
(7.7235 0.718411 4.7285e-12)
(7.81836 0.688155 5.45519e-12)
(7.89848 0.655429 2.44508e-12)
(7.96016 0.623295 7.11759e-12)
(8.00881 0.590876 8.66941e-12)
(8.04612 0.559466 8.75972e-12)
(8.07462 0.526388 5.93725e-12)
(8.08944 0.48997 4.907e-12)
(8.09001 0.460073 7.14112e-12)
(8.08507 0.438282 9.00703e-12)
(8.07778 0.41921 5.59722e-12)
(8.0675 0.401988 -3.86491e-12)
(8.05456 0.385793 1.02855e-12)
(8.03936 0.370565 3.25631e-12)
(8.02336 0.351066 4.74598e-13)
(8.00697 0.328318 6.61487e-12)
(7.98478 0.30733 6.86462e-12)
(7.95732 0.286397 9.53161e-12)
(7.9244 0.266327 9.28158e-12)
(7.88859 0.247947 3.29831e-12)
(7.84678 0.231077 9.98586e-12)
(7.80371 0.21764 -2.97721e-12)
(7.75132 0.205067 1.74921e-11)
(7.70093 0.200134 1.43518e-11)
(7.63 0.198019 1.75874e-11)
(7.56477 0.202755 1.5454e-11)
(7.45382 0.219589 1.83818e-11)
(7.34734 0.246275 1.09382e-11)
(7.14881 0.295675 5.45647e-12)
(6.88542 0.412803 3.68546e-12)
(6.18708 0.524005 3.79857e-12)
(5.28004 0.527474 1.91488e-12)
(3.63111 0.349597 -2.8998e-12)
(2.7384 0.422096 -3.86428e-12)
(1.08301 -0.0792628 -2.88883e-14)
(1.2942 -0.425551 -5.97285e-14)
(1.25302 -0.600456 -4.04136e-13)
(1.58003 -0.476852 -9.86124e-13)
(2.20339 -0.209205 -9.42925e-13)
(2.88448 0.0874497 -1.04666e-12)
(3.5542 0.31927 -2.6661e-13)
(4.16313 0.490062 3.82524e-12)
(4.69598 0.597412 7.25484e-12)
(5.1535 0.661907 6.02249e-12)
(5.54917 0.701566 6.46281e-12)
(5.89021 0.720738 7.38751e-12)
(6.18295 0.727689 8.43193e-12)
(6.43525 0.722015 6.92702e-12)
(6.65224 0.700129 8.90291e-12)
(6.82094 0.679311 7.13611e-12)
(6.96528 0.659928 6.05501e-12)
(7.09836 0.645032 6.02658e-12)
(7.21276 0.622173 4.39672e-12)
(7.30646 0.59681 4.63251e-12)
(7.38481 0.56977 1.14635e-11)
(7.4494 0.542314 1.0395e-11)
(7.50298 0.513372 7.35563e-12)
(7.54239 0.481604 5.98302e-12)
(7.56725 0.454597 7.28729e-12)
(7.58437 0.43387 7.30429e-12)
(7.59698 0.415369 1.33648e-11)
(7.60527 0.398602 4.69002e-12)
(7.60998 0.38292 4.47374e-12)
(7.61103 0.36853 4.04567e-12)
(7.61035 0.351551 6.75472e-12)
(7.60936 0.331624 7.67849e-12)
(7.602 0.311321 7.7112e-12)
(7.58822 0.291116 1.2854e-11)
(7.56828 0.27149 4.64415e-12)
(7.54473 0.253428 -1.37302e-13)
(7.51435 0.236915 1.47311e-11)
(7.48188 0.223732 3.21872e-13)
(7.4397 0.210634 7.92009e-12)
(7.39851 0.20566 8.6211e-12)
(7.33724 0.203413 1.3427e-11)
(7.28014 0.209839 1.15987e-11)
(7.17568 0.227096 1.41455e-11)
(7.08157 0.255861 1.24454e-11)
(6.88773 0.308222 3.63077e-12)
(6.63606 0.428383 4.30602e-12)
(5.94804 0.538374 3.24556e-12)
(5.09646 0.548407 1.27562e-12)
(3.4988 0.358228 -3.04898e-12)
(2.69102 0.454949 -3.52532e-12)
(0.96433 -0.0194649 4.5148e-14)
(1.17385 -0.181913 2.89652e-13)
(1.15002 -0.268285 -1.18154e-14)
(1.25964 -0.301012 -5.78968e-13)
(1.56582 -0.258822 -1.83363e-12)
(2.04055 -0.105661 -4.38605e-12)
(2.58626 0.0715107 -3.02547e-12)
(3.13101 0.231235 8.23252e-12)
(3.64308 0.355081 1.35519e-11)
(4.10852 0.448034 8.37193e-12)
(4.51967 0.513959 6.85823e-12)
(4.88587 0.555774 5.59034e-12)
(5.20849 0.581833 7.5688e-12)
(5.4922 0.593063 5.57747e-12)
(5.7374 0.585326 9.45704e-12)
(5.94816 0.579188 6.00483e-12)
(6.13594 0.577977 7.1644e-12)
(6.30405 0.573598 6.54518e-12)
(6.44993 0.560055 5.92925e-12)
(6.57516 0.543635 3.92072e-12)
(6.6839 0.524419 7.85404e-12)
(6.77716 0.503721 1.10478e-11)
(6.85778 0.481248 6.73329e-12)
(6.92381 0.45652 6.74708e-12)
(6.97463 0.434704 8.23123e-12)
(7.01556 0.41657 7.01672e-12)
(7.05016 0.399894 1.19876e-11)
(7.07905 0.384648 9.32633e-12)
(7.10327 0.370205 8.21534e-12)
(7.12259 0.356607 5.55147e-12)
(7.13954 0.34268 1.54597e-11)
(7.15553 0.326302 9.26371e-12)
(7.16442 0.307488 9.84601e-12)
(7.16601 0.288688 1.69802e-11)
(7.16066 0.270057 4.35193e-12)
(7.15087 0.252936 -2.26818e-12)
(7.13344 0.23715 2.29136e-11)
(7.11298 0.224475 8.73623e-14)
(7.08239 0.21206 5.1266e-13)
(7.05126 0.207757 3.94768e-12)
(7.00085 0.205509 1.02314e-11)
(6.95239 0.21363 7.47721e-12)
(6.85667 0.231336 1.04674e-11)
(6.7741 0.260885 1.23117e-11)
(6.58671 0.315964 6.75908e-13)
(6.34593 0.439783 5.39302e-12)
(5.67602 0.545518 2.42634e-12)
(4.88339 0.561428 3.22369e-13)
(3.34648 0.360862 -3.45411e-12)
(2.63659 0.4855 -2.84286e-12)
(0.950229 0.023219 9.87229e-14)
(1.03956 -0.0560837 7.31729e-13)
(1.06318 -0.095834 1.12864e-13)
(1.12171 -0.11697 -7.46154e-13)
(1.24952 -0.132737 -3.62386e-12)
(1.48691 -0.108771 -1.03122e-11)
(1.8351 -0.0446662 -4.54939e-12)
(2.24879 0.0495028 6.96654e-12)
(2.68106 0.150194 8.1206e-12)
(3.10359 0.237944 6.68442e-12)
(3.50096 0.311741 5.92923e-12)
(3.87074 0.368428 2.47075e-12)
(4.20487 0.410023 7.64849e-12)
(4.50721 0.437536 3.06091e-12)
(4.77678 0.451477 1.33996e-11)
(5.0158 0.467056 2.35943e-12)
(5.23124 0.477231 1.03677e-11)
(5.42602 0.479688 6.95414e-12)
(5.60104 0.47558 6.99689e-12)
(5.75672 0.468983 2.55621e-12)
(5.89503 0.458828 8.37318e-12)
(6.01689 0.446351 1.44025e-11)
(6.12534 0.431646 2.80811e-12)
(6.21925 0.414523 8.21618e-12)
(6.29708 0.398028 1.01276e-11)
(6.36303 0.383534 7.58816e-12)
(6.42133 0.370132 1.37521e-11)
(6.47286 0.357441 1.28328e-11)
(6.51874 0.345289 1.12699e-11)
(6.55868 0.333155 9.12608e-12)
(6.59553 0.322476 1.05988e-11)
(6.63014 0.310099 7.19301e-12)
(6.65687 0.293677 1.46744e-11)
(6.6756 0.27704 2.17699e-11)
(6.68662 0.260246 1.56294e-11)
(6.69231 0.244664 -1.28988e-12)
(6.68951 0.230184 2.01602e-11)
(6.68266 0.218604 -1.12061e-11)
(6.66531 0.20738 -6.27435e-12)
(6.64532 0.203951 2.0535e-12)
(6.60763 0.202759 8.68747e-12)
(6.56836 0.212925 2.8617e-12)
(6.48484 0.230275 8.2008e-12)
(6.4129 0.26102 1.08903e-11)
(6.23167 0.31845 3.48802e-12)
(6.00177 0.445299 8.45824e-12)
(5.35805 0.54475 1.05614e-12)
(4.62658 0.565047 -1.11055e-12)
(3.16666 0.356489 -4.22003e-12)
(2.57146 0.512232 -1.54064e-12)
(0.930584 0.0206035 3.93674e-14)
(0.990715 -0.00987827 1.5511e-13)
(1.01793 -0.0220837 -1.613e-13)
(1.05944 -0.0250455 -1.24525e-12)
(1.12014 -0.0251468 -7.13384e-12)
(1.22192 -0.0190319 -6.1114e-12)
(1.38383 -0.00896226 5.96177e-13)
(1.61564 0.0108965 4.99309e-13)
(1.90578 0.0458952 1.89481e-12)
(2.23287 0.0944245 2.66414e-12)
(2.57035 0.152123 3.10186e-12)
(2.90288 0.206999 -4.65961e-12)
(3.22022 0.251144 -5.2795e-12)
(3.51847 0.285458 -2.92621e-12)
(3.79385 0.310577 8.54988e-12)
(4.04589 0.333401 2.56444e-12)
(4.27915 0.350925 5.13562e-12)
(4.49472 0.364002 4.95184e-12)
(4.6917 0.37113 7.15888e-12)
(4.87112 0.374878 -1.27022e-12)
(5.03433 0.374544 1.77858e-12)
(5.18172 0.370967 6.97207e-12)
(5.31586 0.364795 3.40593e-12)
(5.43562 0.355591 1.533e-11)
(5.53932 0.344436 1.34447e-11)
(5.63071 0.334002 8.68098e-12)
(5.71374 0.324651 2.05638e-11)
(5.78903 0.315192 1.60585e-11)
(5.85763 0.305822 1.32572e-11)
(5.91983 0.297314 1.2547e-11)
(5.9782 0.290619 3.96283e-12)
(6.03225 0.28146 4.89324e-12)
(6.07753 0.268102 8.60115e-12)
(6.1147 0.254164 1.10337e-11)
(6.14345 0.23998 1.88488e-11)
(6.16591 0.226795 -3.24865e-12)
(6.17927 0.214389 2.16334e-11)
(6.18741 0.204571 -2.17194e-11)
(6.1848 0.195193 -8.97659e-12)
(6.17638 0.192976 6.684e-12)
(6.15378 0.193281 8.7592e-12)
(6.12435 0.205718 -3.11791e-12)
(6.05614 0.222877 8.9122e-12)
(5.99379 0.255439 9.21635e-12)
(5.81795 0.3141 5.84178e-12)
(5.60091 0.441436 3.42097e-12)
(4.98925 0.534777 -1.94087e-12)
(4.31895 0.563135 -3.59306e-12)
(2.96267 0.335042 -5.27364e-12)
(2.49955 0.530392 8.84083e-13)
(0.920455 0.0172438 7.68259e-15)
(0.959989 0.0139731 -5.36976e-15)
(0.986258 0.0162278 -2.37594e-13)
(1.01903 0.0204911 -1.01162e-12)
(1.05792 0.0268149 -2.96434e-12)
(1.11136 0.0362616 -3.5997e-12)
(1.18618 0.0454291 -2.45177e-12)
(1.29077 0.0524295 -4.79477e-12)
(1.43317 0.0600007 -2.53059e-12)
(1.61779 0.0691714 -9.16177e-13)
(1.83862 0.0835135 -2.01853e-12)
(2.08275 0.103309 -3.68985e-12)
(2.33848 0.127292 -4.64103e-12)
(2.59783 0.154676 -4.00448e-12)
(2.85136 0.181586 -2.03705e-12)
(3.09494 0.206925 -2.58832e-12)
(3.32785 0.22774 2.38617e-12)
(3.54823 0.245872 3.30838e-12)
(3.75517 0.259696 6.66508e-12)
(3.94917 0.270094 -1.17474e-12)
(4.12951 0.276356 1.24313e-12)
(4.29606 0.279781 2.85975e-12)
(4.45084 0.28101 5.29134e-12)
(4.59227 0.278282 8.91184e-12)
(4.71828 0.272379 1.35662e-11)
(4.83319 0.267243 1.08029e-11)
(4.93973 0.262784 1.46803e-11)
(5.03793 0.258653 1.45105e-11)
(5.12973 0.254055 1.3121e-11)
(5.21471 0.250001 1.26915e-11)
(5.29319 0.246125 9.94039e-12)
(5.36591 0.239186 4.54249e-12)
(5.43005 0.229516 5.54069e-12)
(5.48597 0.219287 3.29664e-12)
(5.5331 0.208578 2.0651e-11)
(5.57313 0.198355 3.21706e-12)
(5.60345 0.188695 4.56524e-12)
(5.62758 0.181228 -1.72732e-11)
(5.64063 0.174786 9.62201e-13)
(5.64593 0.174281 4.52084e-12)
(5.63767 0.175695 6.91386e-12)
(5.62076 0.190739 8.85895e-13)
(5.56906 0.208771 3.41294e-12)
(5.51488 0.244031 6.85307e-12)
(5.34594 0.301639 -6.8676e-12)
(5.14482 0.4251 -2.62603e-12)
(4.56988 0.513115 -3.4246e-12)
(3.95828 0.554977 -3.54058e-12)
(2.73459 0.298157 -6.09489e-12)
(2.40316 0.531713 3.08399e-12)
(0.913843 0.0138214 7.87264e-15)
(0.940734 0.0227395 8.49218e-15)
(0.964077 0.0322208 -1.15662e-13)
(0.990108 0.0411011 -8.13304e-13)
(1.01992 0.0503788 -2.38766e-12)
(1.05631 0.0601296 -3.52898e-12)
(1.09999 0.069323 -2.64817e-12)
(1.15518 0.0786022 -2.76681e-12)
(1.22451 0.0857377 -2.305e-12)
(1.31091 0.0903898 -1.90647e-12)
(1.41703 0.0939072 -9.49998e-12)
(1.54563 0.0935695 -6.19515e-12)
(1.70028 0.0943864 -5.04451e-12)
(1.8755 0.0991996 -3.33367e-12)
(2.06457 0.104956 -1.17471e-11)
(2.26273 0.114795 -8.2169e-12)
(2.46275 0.127878 7.33693e-12)
(2.66202 0.143262 4.10646e-12)
(2.85803 0.158479 7.46003e-12)
(3.04796 0.171483 -1.07291e-11)
(3.23066 0.180376 5.35702e-12)
(3.40489 0.187442 9.751e-13)
(3.56987 0.19263 1.20023e-11)
(3.72369 0.194099 6.96579e-12)
(3.86621 0.19378 1.9225e-11)
(4.00051 0.19439 1.27508e-11)
(4.12697 0.194436 1.20732e-11)
(4.24516 0.194386 1.2216e-11)
(4.35564 0.193639 1.15394e-11)
(4.45866 0.191792 1.13538e-11)
(4.55494 0.189101 1.17345e-11)
(4.64516 0.185128 -5.16393e-13)
(4.72706 0.179219 1.98698e-12)
(4.80076 0.172715 -1.13373e-13)
(4.86525 0.165828 9.67294e-12)
(4.92233 0.159186 -2.81691e-12)
(4.9698 0.153138 3.80843e-13)
(5.01059 0.148449 -4.68968e-12)
(5.03937 0.145206 7.15853e-12)
(5.06183 0.146951 5.20469e-12)
(5.06677 0.151465 7.22844e-12)
(5.06219 0.167624 1.60543e-12)
(5.0261 0.186939 3.78947e-13)
(4.98047 0.225254 3.95726e-12)
(4.82263 0.278663 -1.61089e-11)
(4.63642 0.398602 -7.69297e-12)
(4.09527 0.485847 -5.34934e-12)
(3.55277 0.534185 -4.31813e-12)
(2.46951 0.265209 -6.36716e-12)
(2.29113 0.516773 1.55538e-12)
(0.909112 0.0115567 3.13631e-14)
(0.92894 0.0253959 1.36717e-13)
(0.948346 0.0378643 4.03905e-13)
(0.969591 0.0491646 -3.87907e-13)
(0.99288 0.0600988 -1.34894e-12)
(1.01982 0.0700146 -1.85139e-12)
(1.05158 0.0790826 -1.8783e-12)
(1.08812 0.0871756 -1.89062e-12)
(1.1292 0.0936166 -1.81825e-12)
(1.17769 0.100083 -1.89129e-12)
(1.2334 0.104621 -3.33752e-12)
(1.29552 0.105859 -3.38034e-12)
(1.36878 0.105548 -3.19328e-12)
(1.45641 0.103577 -3.05985e-12)
(1.55867 0.0992108 2.82124e-12)
(1.67691 0.0958301 -5.79233e-13)
(1.80935 0.0948143 1.48539e-12)
(1.95288 0.0948896 1.16585e-12)
(2.10575 0.0965817 4.35658e-12)
(2.26421 0.0999612 -9.75329e-12)
(2.4239 0.104339 -2.86106e-12)
(2.58289 0.110141 -1.98918e-12)
(2.74015 0.115759 2.69309e-12)
(2.89348 0.119799 2.13052e-12)
(3.04073 0.122903 6.87702e-12)
(3.18205 0.125547 6.32094e-12)
(3.31706 0.127282 8.66769e-12)
(3.44579 0.127849 9.62993e-12)
(3.56859 0.12772 8.8488e-12)
(3.68482 0.127465 9.91868e-12)
(3.79446 0.126791 7.5599e-12)
(3.89814 0.125638 1.83775e-12)
(3.99393 0.122812 6.53848e-13)
(4.08238 0.120037 -1.48332e-12)
(4.16238 0.116818 2.68795e-12)
(4.2352 0.113775 -1.6243e-13)
(4.29831 0.111428 -3.22862e-12)
(4.3545 0.109748 8.93028e-12)
(4.39907 0.10952 5.19183e-12)
(4.43716 0.113852 5.54769e-12)
(4.45706 0.120767 -6.9868e-12)
(4.46346 0.139378 -3.47715e-12)
(4.43972 0.1591 -2.77653e-12)
(4.40187 0.198749 -3.72379e-15)
(4.25875 0.253322 -1.70474e-11)
(4.08337 0.367356 -9.9156e-12)
(3.58103 0.451691 -6.71318e-12)
(3.12904 0.504185 -5.05869e-12)
(2.18042 0.234926 -6.04829e-12)
(2.17485 0.469115 -6.84429e-12)
(0.906386 0.00976381 1.99353e-14)
(0.921217 0.0243822 1.09187e-13)
(0.936955 0.0375697 5.15016e-13)
(0.954352 0.0495166 -3.5698e-13)
(0.97339 0.0607303 -1.61127e-12)
(0.994605 0.0711453 -1.47975e-12)
(1.01832 0.0804992 -1.46884e-12)
(1.045 0.0882867 -1.46941e-12)
(1.07541 0.0948554 -1.48223e-12)
(1.10847 0.100115 -1.60972e-12)
(1.14207 0.103171 -2.08096e-12)
(1.17907 0.105571 -2.0207e-12)
(1.22211 0.107383 -1.8661e-12)
(1.27003 0.107291 -1.65879e-12)
(1.32307 0.105647 -3.81074e-13)
(1.38289 0.103151 -3.17509e-13)
(1.45137 0.100681 3.94061e-14)
(1.52908 0.0968219 -8.25716e-13)
(1.61721 0.0911191 -9.05517e-13)
(1.71558 0.0859828 3.83632e-12)
(1.82393 0.0809409 2.06688e-12)
(1.94051 0.0771188 -4.65508e-13)
(2.06416 0.0744429 -4.83215e-13)
(2.19191 0.072316 -1.89451e-12)
(2.32133 0.0711137 1.45666e-12)
(2.45167 0.0705719 -5.69714e-14)
(2.58085 0.0705711 9.97276e-12)
(2.70762 0.0703662 7.86816e-12)
(2.83113 0.070236 5.17346e-12)
(2.95027 0.0697558 8.67927e-12)
(3.0645 0.069572 -4.17765e-12)
(3.17402 0.0695439 -3.99957e-12)
(3.27778 0.0686877 -3.71206e-12)
(3.37572 0.0682437 -3.55425e-12)
(3.4658 0.067665 -5.90584e-13)
(3.54994 0.0674154 -2.31786e-12)
(3.6254 0.0677494 -4.72966e-12)
(3.69416 0.0688571 -1.10085e-12)
(3.75155 0.0716399 -3.55763e-13)
(3.80182 0.0782536 1.01008e-12)
(3.8325 0.088855 -1.86442e-12)
(3.84872 0.108825 -5.43112e-12)
(3.834 0.129615 -4.69211e-12)
(3.8016 0.169936 -4.90091e-12)
(3.67121 0.222784 -1.49084e-11)
(3.50272 0.329453 -9.45017e-12)
(3.06239 0.394017 -6.96328e-12)
(2.70645 0.460718 -5.45964e-12)
(1.94446 0.203979 -5.71328e-12)
(2.04062 0.413989 -5.99075e-12)
(0.904598 0.00812917 -5.83548e-14)
(0.915811 0.021718 -4.31184e-13)
(0.928409 0.0342669 -2.24661e-13)
(0.942608 0.0458544 -4.50237e-13)
(0.958254 0.0567054 -8.34591e-13)
(0.975539 0.0667741 -1.05436e-12)
(0.994594 0.0760421 -1.166e-12)
(1.01544 0.0842522 -1.19433e-12)
(1.0379 0.0910476 -1.21863e-12)
(1.06182 0.0958462 -1.37529e-12)
(1.08777 0.0992886 -2.27906e-12)
(1.11606 0.101984 -1.26827e-12)
(1.14523 0.103036 -8.825e-13)
(1.17548 0.102669 -6.61747e-13)
(1.20904 0.10192 -2.94197e-13)
(1.24672 0.101486 -6.35359e-14)
(1.28819 0.100335 -4.41332e-13)
(1.33157 0.0975249 -4.08071e-12)
(1.37974 0.0936389 -2.74584e-12)
(1.4347 0.0894263 -1.04226e-12)
(1.49608 0.084791 3.54085e-13)
(1.56547 0.0793136 -4.55186e-12)
(1.64298 0.0724159 -4.8614e-12)
(1.72842 0.0655053 -6.81922e-12)
(1.82109 0.0590647 2.66997e-12)
(1.9196 0.0533064 -1.75472e-12)
(2.02235 0.0479261 -1.26315e-12)
(2.12816 0.0427107 -3.16166e-13)
(2.23526 0.0379841 -1.51175e-12)
(2.34185 0.0344176 4.26124e-12)
(2.44742 0.0322286 -1.33877e-11)
(2.55111 0.0313567 -9.18214e-12)