/*--------------------------------*- C++ -*----------------------------------*\
| =========                 |                                                 |
| \\      /  F ield         | OpenFOAM: The Open Source CFD Toolbox           |
|  \\    /   O peration     | Version:  2.4.x                                 |
|   \\  /    A nd           | Web:      www.OpenFOAM.org                      |
|    \\/     M anipulation  |                                                 |
\*---------------------------------------------------------------------------*/
FoamFile
{
    version     2.0;
    format      ascii;
    class       volScalarField;
    location    "0.09";
    object      varZ;
}
// * * * * * * * * * * * * * * * * * * * * * * * * * * * * * * * * * * * * * //

dimensions      [0 0 0 0 0 0 0];

internalField   nonuniform List<scalar> 
1250
(
0.00111888
0.00460486
0.0098987
0.0160596
0.0225963
0.0289605
0.0347359
0.0395769
0.043378
0.0462137
0.0481336
0.0493072
0.0497399
0.0496637
0.049254
0.0483516
0.0471672
0.0457992
0.0442998
0.0427145
0.0410869
0.0394456
0.0378187
0.0362251
0.034676
0.0331843
0.0317551
0.030394
0.0291016
0.0278784
0.0267246
0.0256375
0.0246189
0.0236651
0.0227739
0.0219575
0.0211904
0.0205055
0.0198978
0.0192968
0.018882
0.0184499
0.0179781
0.0179504
0.018414
0.0202999
0.0271613
0.0367613
0.0325422
0.0138424
0.00125895
0.00517024
0.0110335
0.017728
0.024682
0.0312405
0.0370266
0.041724
0.0453225
0.0479421
0.0496406
0.0506027
0.050851
0.0506613
0.050076
0.0490544
0.0477905
0.0463533
0.0447972
0.0431664
0.0415017
0.0398305
0.0381801
0.036567
0.0350013
0.0334958
0.0320548
0.0306829
0.0293805
0.0281479
0.0269853
0.0258897
0.0248632
0.0239018
0.0230038
0.022181
0.0214086
0.020719
0.0201064
0.0195035
0.019085
0.018648
0.0181765
0.0181483
0.0186072
0.020502
0.0273895
0.0367566
0.0324785
0.0137671
0.00167434
0.00681935
0.0142953
0.0223889
0.0302547
0.0370573
0.0426518
0.0468634
0.0498949
0.0519358
0.0530637
0.0535188
0.053378
0.0528464
0.0518788
0.0506214
0.0491662
0.0475726
0.0458895
0.0441565
0.0424095
0.040672
0.0389683
0.0373119
0.0357091
0.0341721
0.0327041
0.0313078
0.0299829
0.0287292
0.0275467
0.0264324
0.0253881
0.0244101
0.0234972
0.0226604
0.0218766
0.0211771
0.0205542
0.0199471
0.0195208
0.0190733
0.0186036
0.0185754
0.0190159
0.0209405
0.0278979
0.036743
0.0323308
0.0135798
0.00284841
0.0111465
0.0223206
0.0327856
0.041455
0.0478551
0.0525072
0.0555102
0.0573246
0.0582699
0.0583735
0.0580571
0.0572449
0.0560669
0.0546223
0.0529885
0.051235
0.0494017
0.0475259
0.0456381
0.0437662
0.0419276
0.040142
0.0384185
0.0367598
0.0351723
0.0336622
0.0322275
0.0308674
0.029581
0.0283678
0.0272247
0.0261533
0.0251506
0.0242155
0.0233581
0.0225577
0.0218437
0.0212061
0.020593
0.0201553
0.0196928
0.0192277
0.0192005
0.01959
0.0215942
0.0286508
0.0367065
0.0320991
0.0132734
0.00774702
0.0243745
0.0422171
0.0537322
0.0609431
0.0649736
0.0671033
0.0677331
0.0675047
0.066781
0.0654989
0.0639644
0.0621936
0.060246
0.05818
0.056057
0.0539151
0.0517702
0.0496442
0.0475556
0.0455207
0.0435497
0.0416561
0.039843
0.0381095
0.0364562
0.0348863
0.0333995
0.0319916
0.030661
0.0294065
0.0282252
0.027118
0.0260832
0.0251197
0.0242364
0.0234152
0.0226832
0.0220279
0.0214072
0.0209548
0.0204744
0.0200175
0.0199938
0.0203485
0.0224135
0.0295708
0.036623
0.0317795
0.0128515
0.0492059
0.0687609
0.0811312
0.086124
0.0876895
0.0869362
0.0849972
0.0823685
0.0794984
0.0766219
0.073683
0.0707727
0.0678972
0.0650694
0.0623017
0.0596273
0.0570432
0.054541
0.0521276
0.0498071
0.0475825
0.0454564
0.0434349
0.0415149
0.0396907
0.0379589
0.0363168
0.0347638
0.0332972
0.0319126
0.0306079
0.0293804
0.0282305
0.0271578
0.0261618
0.0252492
0.0244046
0.0236522
0.0229776
0.0223484
0.0218786
0.0213794
0.0209355
0.0209185
0.0212703
0.0233671
0.0305724
0.0364651
0.0313473
0.0123346
0.0702572
0.110625
0.119239
0.118054
0.114228
0.108428
0.102501
0.0967629
0.0913778
0.0864667
0.0819053
0.0776744
0.0737354
0.0700507
0.066599
0.0633855
0.0603605
0.0574971
0.0547921
0.0522334
0.0498114
0.0475234
0.0453661
0.0433306
0.0414071
0.0395885
0.0378684
0.0362421
0.0347086
0.0332638
0.0319033
0.0306249
0.0294289
0.0283155
0.0272854
0.0263428
0.0254743
0.024701
0.0240073
0.0233689
0.0228805
0.0223637
0.0219377
0.0219301
0.0222981
0.0244122
0.0315795
0.0362034
0.0307855
0.011741
0.0306373
0.114802
0.135541
0.135822
0.131139
0.123424
0.115425
0.107859
0.10088
0.094598
0.0888786
0.0836776
0.0789295
0.0745762
0.0705867
0.0669253
0.0635259
0.0603509
0.057392
0.0546211
0.0520208
0.0495854
0.0473007
0.0451544
0.043134
0.0412292
0.0394318
0.0377346
0.0361347
0.0346289
0.0332125
0.0318839
0.030643
0.0294908
0.0284281
0.0274578
0.0265676
0.0257751
0.0250641
0.0244169
0.0239097
0.0233787
0.0229757
0.0229787
0.0233766
0.0254957
0.0325106
0.0358196
0.0300795
0.0110926
0.0171097
0.0859522
0.12245
0.132753
0.132125
0.127535
0.120424
0.11314
0.106062
0.0994657
0.0933634
0.0877829
0.0826681
0.0779858
0.0737201
0.069792
0.0661527
0.0627746
0.0596423
0.0567208
0.053991
0.0514461
0.0490615
0.0468244
0.0447237
0.0427461
0.0408827
0.0391258
0.0374713
0.0359122
0.0344475
0.033076
0.0317975
0.0306136
0.0295245
0.0285319
0.027625
0.0268172
0.0260925
0.0254378
0.0249136
0.0243735
0.0239973
0.0240121
0.0244501
0.026568
0.0332806
0.0353089
0.0292149
0.0104174
0.0121093
0.0470828
0.0848678
0.107787
0.117358
0.11872
0.116047
0.111199
0.105579
0.0998617
0.0943474
0.089135
0.0842323
0.0796604
0.0754518
0.0715154
0.0678382
0.0644186
0.0612344
0.0582626
0.0554836
0.0528894
0.0504531
0.0481645
0.0460169
0.0439947
0.0420897
0.040295
0.038607
0.0370145
0.0355171
0.0341182
0.0328162
0.0316134
0.0305089
0.0295031
0.0285865
0.0277695
0.0270362
0.0263769
0.0258391
0.0252961
0.0249499
0.0249785
0.0254641
0.0275975
0.0338031
0.0346686
0.0281815
0.00974308
0.00306601
0.0179028
0.041871
0.0684643
0.0875716
0.0976312
0.101434
0.101128
0.0989893
0.0953709
0.0913536
0.0871949
0.0830504
0.0790382
0.0752386
0.0716035
0.0681638
0.064926
0.0618667
0.0589843
0.0562688
0.0537123
0.0513013
0.049025
0.0468812
0.0448584
0.0429498
0.0411506
0.0394585
0.0378612
0.0363568
0.0349544
0.0336493
0.0324459
0.0313413
0.0303351
0.0294188
0.0285999
0.0278644
0.0272048
0.0266585
0.0261197
0.0258071
0.0258529
0.0263932
0.0285602
0.0340323
0.0338891
0.0269853
0.00904107
0.00137995
0.00698963
0.0171633
0.0322237
0.0502943
0.0659475
0.0762934
0.0818823
0.0841471
0.0840635
0.0829032
0.0807183
0.0781001
0.0752904
0.0724048
0.0694892
0.0666167
0.0638265
0.0611141
0.0584988
0.055998
0.0536089
0.0513345
0.0491712
0.0471117
0.0451595
0.0433091
0.041557
0.0399056
0.0383451
0.0368751
0.0355055
0.0342284
0.0330517
0.0319695
0.0309818
0.030081
0.0292712
0.0285422
0.0278896
0.0273416
0.026817
0.0265457
0.0266147
0.0272208
0.0294266
0.0339317
0.0329107
0.0255259
0.00826486
0.000779452
0.00337825
0.00758267
0.013687
0.0224145
0.0334857
0.044963
0.0545595
0.0612931
0.0654304
0.0676048
0.0682805
0.0679876
0.0670742
0.0656627
0.0639571
0.0621264
0.0601922
0.0581748
0.0561214
0.0540871
0.0520815
0.0501192
0.0482051
0.0463471
0.044566
0.0428606
0.0412324
0.0396872
0.038228
0.0368537
0.0355712
0.034371
0.0332635
0.0322385
0.0312988
0.030437
0.0296554
0.0289482
0.0283152
0.0277774
0.0272829
0.0270668
0.0271692
0.0278596
0.0300905
0.0334199
0.031641
0.023649
0.00738545
0.000486043
0.0019054
0.00391119
0.0065486
0.0100384
0.0146918
0.0206802
0.0277626
0.0349782
0.0414103
0.0464592
0.0500697
0.052396
0.0537376
0.0543081
0.0542548
0.0538988
0.0531684
0.0521737
0.0509889
0.0497138
0.0483557
0.0469373
0.0454826
0.0440163
0.0425696
0.0411513
0.0397748
0.0384491
0.0371929
0.036006
0.0348825
0.0338247
0.03284
0.0319156
0.0310624
0.030271
0.0295452
0.0288828
0.0282902
0.0277827
0.0273463
0.0272045
0.027354
0.0281125
0.0303185
0.0323826
0.0299918
0.0212088
0.00638741
0.000317981
0.00117149
0.00226365
0.00359254
0.00518889
0.00713042
0.00952963
0.0125365
0.0161951
0.0204108
0.0249157
0.0292841
0.0331157
0.036261
0.0386943
0.0404328
0.0416315
0.0423684
0.0426726
0.042626
0.0423931
0.0419096
0.0412528
0.0404594
0.0395832
0.0386566
0.0376886
0.0367124
0.0357444
0.0348075
0.0339129
0.0330481
0.0322245
0.0314367
0.0306856
0.0299795
0.0293065
0.028681
0.0281025
0.0275864
0.0271474
0.0268146
0.0267648
0.0269838
0.0278264
0.0298339
0.0307158
0.0277802
0.0182238
0.00525184
0.000213502
0.000752227
0.00140311
0.00215632
0.00300793
0.00396671
0.00505543
0.00631645
0.00779895
0.00955805
0.0116366
0.014021
0.0166657
0.0194198
0.022127
0.0246298
0.0268371
0.0287131
0.0302061
0.0313166
0.0321232
0.0326415
0.0329013
0.0329106
0.0328065
0.0325536
0.0321778
0.0317426
0.0312608
0.0307576
0.0302548
0.0297416
0.0292271
0.0287081
0.0282006
0.0277007
0.0272111
0.0267461
0.026308
0.0259245
0.0256177
0.0254508
0.0255072
0.0258561
0.0268022
0.0283646
0.0283088
0.0247725
0.0147466
0.00403207
0.00014421
0.00049363
0.000902101
0.00136179
0.00186502
0.00240732
0.00298954
0.0036182
0.00430485
0.00506639
0.00592557
0.00690494
0.00803519
0.00931994
0.0107573
0.0123326
0.0140038
0.0157213
0.0174036
0.018971
0.0203822
0.0216056
0.0226151
0.0233957
0.023995
0.024427
0.0247012
0.0248617
0.0249275
0.0249211
0.0248766
0.0247764
0.0246335
0.0244542
0.0242512
0.0240233
0.0237896
0.0235563
0.0233347
0.0231595
0.023074
0.0231135
0.0233267
0.0238622
0.0248471
0.0257822
0.0250687
0.0208431
0.0109191
0.0028371
9.69458e-05
0.000326094
0.000589228
0.000881433
0.00119705
0.00153097
0.00187953
0.00224126
0.00261703
0.00300967
0.00342518
0.0038701
0.00435442
0.00488763
0.0054835
0.00615086
0.00689687
0.00772664
0.008641
0.00962228
0.0106549
0.0117137
0.0127563
0.0137427
0.0146544
0.0154755
0.0161872
0.0167966
0.0173104
0.0177436
0.018109
0.0184084
0.0186478
0.0188338
0.0189751
0.019077
0.0191558
0.019221
0.019291
0.0194002
0.0195802
0.0198793
0.0203267
0.0210126
0.0218601
0.0221707
0.020859
0.0160113
0.00712472
0.00179279
6.4293e-05
0.000214206
0.000385062
0.000574111
0.000777901
0.000992772
0.00121532
0.00144271
0.00167309
0.00190567
0.00214107
0.00238019
0.00262529
0.00287946
0.00314771
0.00343328
0.0037407
0.00407664
0.00444854
0.00486243
0.00531792
0.00581777
0.00636465
0.00694977
0.00756865
0.00821201
0.00885964
0.00949886
0.0101195
0.0107183
0.0112903
0.01183
0.0123332
0.0127996
0.0132304
0.0136291
0.0140041
0.0143655
0.0147289
0.0151209
0.015561
0.0160851
0.0166965
0.0173964
0.0179223
0.0177064
0.0157512
0.0105197
0.00390951
0.000984955
4.16141e-05
0.000138171
0.000248268
0.000370545
0.00050309
0.000643589
0.00078959
0.000938657
0.00108862
0.00123784
0.00138515
0.00152988
0.0016721
0.00181233
0.00195158
0.00209094
0.002232
0.00237751
0.00253041
0.00269433
0.00287109
0.00306478
0.003283
0.00353009
0.00380627
0.00412071
0.00448293
0.00488683
0.00532632
0.00579793
0.00629491
0.0068088
0.00733156
0.00785672
0.00837959
0.00889822
0.00941355
0.00992966
0.0104537
0.0109971
0.011564
0.0121525
0.012742
0.0132408
0.0133068
0.012588
0.0100352
0.005351
0.00177652
0.000474885
2.58427e-05
8.60541e-05
0.000155318
0.000233099
0.000318382
0.000409744
0.000505504
0.000603882
0.000703063
0.000801419
0.00089758
0.000990389
0.00107907
0.00116319
0.0012426
0.00131762
0.00138883
0.00145699
0.00152329
0.00158933
0.00165699
0.00172922
0.00181065
0.00190657
0.00202121
0.00216165
0.00233819
0.00255768
0.00281922
0.00311996
0.00345707
0.00382638
0.00422344
0.00464377
0.00508329
0.00553882
0.0060083
0.00649019
0.00698266
0.00747996
0.00796509
0.00841084
0.00875792
0.0088394
0.00850166
0.00726336
0.00465073
0.00205831
0.000694024
0.00020088
1.48893e-05
5.02873e-05
9.19069e-05
0.000139605
0.000192806
0.000250596
0.000311829
0.000375221
0.000439455
0.000503219
0.000565342
0.000624795
0.000680642
0.000732183
0.000778918
0.000820645
0.000857356
0.000889298
0.000917014
0.000941522
0.000964353
0.00098797
0.001016
0.00105269
0.00110295
0.00117184
0.00126512
0.00138962
0.00154669
0.00173363
0.00194872
0.00218995
0.00245491
0.00274094
0.00304478
0.0033631
0.00369198
0.00402574
0.00435421
0.0046602
0.00491648
0.00507043
0.00506301
0.00482041
0.00410496
0.00289436
0.0015512
0.000657048
0.000236252
7.15281e-05
7.28311e-06
2.58655e-05
4.88713e-05
7.61405e-05
0.00010723
0.000141491
0.000178178
0.000216462
0.000255454
0.000294274
0.000332055
0.000368029
0.000401437
0.000431602
0.000457996
0.00048028
0.000498265
0.000511963
0.000521591
0.000527846
0.000532202
0.00053683
0.000544771
0.000559617
0.00058496
0.00062375
0.000679164
0.000754775
0.000851324
0.000966704
0.00109947
0.00124801
0.00141
0.00158249
0.0017615
0.00194199
0.00211759
0.00228016
0.00241688
0.0025052
0.00252277
0.00246494
0.00225868
0.00187642
0.00136337
0.000831975
0.000416513
0.000177555
6.55354e-05
1.99121e-05
2.14043e-06
9.4192e-06
2.01247e-05
3.33105e-05
4.85925e-05
6.56129e-05
8.40933e-05
0.000103619
0.000123704
0.000143873
0.000163616
0.000182433
0.000199841
0.000215383
0.00022857
0.000238965
0.000246291
0.000250538
0.00025219
0.000252094
0.000251413
0.000251339
0.000253351
0.000260342
0.000275379
0.000298906
0.000332284
0.000376875
0.000432456
0.000497352
0.000570192
0.000649479
0.000733207
0.000818321
0.000900274
0.000973419
0.00103105
0.001065
0.00107028
0.00104622
0.000966041
0.00083657
0.000670236
0.000485388
0.000310843
0.000173471
8.28443e-05
3.4464e-05
1.25961e-05
3.7087e-06
7.47791e-08
1.39663e-06
3.43316e-06
5.867e-06
8.82333e-06
1.22367e-05
1.61104e-05
2.03835e-05
2.49007e-05
2.95287e-05
3.41228e-05
3.853e-05
4.26032e-05
4.62362e-05
4.92642e-05
5.14632e-05
5.26905e-05
5.2996e-05
5.27441e-05
5.22846e-05
5.18873e-05
5.19408e-05
5.29062e-05
5.52664e-05
5.94057e-05
6.5509e-05
7.36344e-05
8.3859e-05
9.6019e-05
0.000109623
0.000124158
0.000139046
0.000153599
0.000166882
0.000177658
0.000184594
0.000186564
0.000182613
0.000172178
0.000155162
0.000132162
0.000105494
7.79516e-05
5.26403e-05
3.20318e-05
1.74724e-05
8.44109e-06
3.69076e-06
1.48593e-06
3.92147e-07
)
;

boundaryField
{
    AXIS
    {
        type            empty;
    }
    OUTLET
    {
        type            zeroGradient;
    }
    COFLOW
    {
        type            fixedValue;
        value           uniform 0;
    }
    PILOT
    {
        type            fixedValue;
        value           uniform 0;
    }
    FUEL
    {
        type            fixedValue;
        value           uniform 0;
    }
    WALL
    {
        type            zeroGradient;
    }
    front
    {
        type            wedge;
    }
    back
    {
        type            wedge;
    }
}


// ************************************************************************* //
