/*--------------------------------*- C++ -*----------------------------------*\
| =========                 |                                                 |
| \\      /  F ield         | OpenFOAM: The Open Source CFD Toolbox           |
|  \\    /   O peration     | Version:  2.4.x                                 |
|   \\  /    A nd           | Web:      www.OpenFOAM.org                      |
|    \\/     M anipulation  |                                                 |
\*---------------------------------------------------------------------------*/
FoamFile
{
    version     2.0;
    format      ascii;
    class       volScalarField;
    location    "0.09";
    object      Z;
}
// * * * * * * * * * * * * * * * * * * * * * * * * * * * * * * * * * * * * * //

dimensions      [0 0 0 0 0 0 0];

internalField   nonuniform List<scalar> 
1250
(
0.997379
0.989514
0.978925
0.966907
0.953702
0.939736
0.925396
0.911175
0.89732
0.883875
0.87081
0.858012
0.845598
0.833552
0.821884
0.810596
0.799554
0.788706
0.778064
0.767625
0.757364
0.747268
0.73732
0.727426
0.717599
0.707838
0.698119
0.688433
0.678772
0.669131
0.659494
0.649862
0.640203
0.630518
0.620784
0.61094
0.601107
0.591013
0.580848
0.570679
0.559676
0.549329
0.538077
0.525606
0.515304
0.496453
0.447703
0.326992
0.187024
0.0692213
0.996974
0.988106
0.976578
0.963644
0.949572
0.93498
0.920234
0.905856
0.891957
0.878535
0.865542
0.85287
0.840605
0.828722
0.81722
0.806082
0.795186
0.784478
0.773974
0.763669
0.753535
0.743557
0.733717
0.723923
0.714192
0.704522
0.694893
0.685294
0.675718
0.666159
0.656602
0.647048
0.637464
0.627854
0.618192
0.608418
0.598649
0.588618
0.578517
0.568394
0.557454
0.547164
0.535944
0.52355
0.513283
0.494419
0.44565
0.325435
0.186208
0.0689031
0.995716
0.984016
0.96988
0.954494
0.938385
0.922587
0.90723
0.892744
0.87894
0.865797
0.853162
0.840914
0.829089
0.817653
0.806582
0.795858
0.785332
0.774976
0.764809
0.754826
0.744991
0.735292
0.725707
0.71615
0.706647
0.69719
0.687769
0.67837
0.668988
0.659618
0.650243
0.640865
0.631453
0.622011
0.612508
0.602892
0.593266
0.583374
0.573413
0.563391
0.552591
0.542425
0.53127
0.519045
0.508849
0.489929
0.441054
0.321845
0.184243
0.0681071
0.991827
0.973498
0.95346
0.93369
0.915072
0.89847
0.883181
0.869326
0.856449
0.844325
0.832683
0.821411
0.810522
0.799968
0.789734
0.779774
0.769919
0.760187
0.750602
0.741161
0.731825
0.722588
0.713423
0.704257
0.69513
0.686032
0.676945
0.667867
0.658796
0.649724
0.640636
0.631536
0.622392
0.61321
0.603954
0.59458
0.58517
0.575492
0.565741
0.555872
0.545283
0.535302
0.524242
0.512269
0.502171
0.48314
0.434058
0.316313
0.181141
0.0668229
0.973984
0.940184
0.911345
0.889015
0.87102
0.856513
0.843883
0.832651
0.82233
0.812474
0.802829
0.793382
0.78415
0.775105
0.766234
0.757472
0.748667
0.739898
0.731191
0.722555
0.713956
0.705397
0.696847
0.688253
0.67966
0.671084
0.662486
0.653866
0.645233
0.63658
0.627895
0.61918
0.610408
0.601579
0.592658
0.58361
0.574492
0.5651
0.555623
0.545961
0.535653
0.525906
0.514972
0.503331
0.493347
0.474153
0.42479
0.308998
0.176987
0.0650797
0.798778
0.825878
0.817364
0.807803
0.799392
0.792829
0.786922
0.781106
0.775304
0.769278
0.76295
0.756365
0.749638
0.742796
0.735859
0.728759
0.721428
0.714
0.706506
0.698967
0.691371
0.683729
0.676011
0.668186
0.660306
0.652407
0.644473
0.636473
0.628418
0.620314
0.612154
0.603939
0.595647
0.587267
0.57877
0.570128
0.561376
0.55234
0.543198
0.533798
0.523838
0.514363
0.503588
0.492354
0.482489
0.463088
0.413416
0.300101
0.171895
0.062919
0.502837
0.64157
0.677076
0.693766
0.703119
0.709253
0.713246
0.715351
0.715848
0.715147
0.713329
0.710549
0.707114
0.703152
0.698739
0.693743
0.688305
0.682602
0.676651
0.670508
0.664189
0.657708
0.651044
0.644192
0.637212
0.630159
0.62304
0.615833
0.608513
0.601095
0.593587
0.58599
0.578286
0.570455
0.562465
0.554305
0.545989
0.537375
0.528621
0.51954
0.509989
0.500815
0.490239
0.479482
0.469726
0.450093
0.400142
0.289864
0.165997
0.0603932
0.320049
0.452094
0.516591
0.560156
0.590223
0.611123
0.62682
0.638159
0.646221
0.651549
0.65497
0.656754
0.657182
0.656707
0.655338
0.65285
0.649688
0.646062
0.641947
0.637476
0.632689
0.627589
0.622189
0.616504
0.610606
0.604571
0.598418
0.592146
0.585725
0.579135
0.572407
0.565543
0.558531
0.551343
0.543944
0.536333
0.528518
0.520388
0.512069
0.503365
0.494276
0.485421
0.475096
0.464881
0.45521
0.435342
0.385208
0.278559
0.159442
0.0575648
0.239628
0.280369
0.353289
0.41871
0.468166
0.504365
0.531983
0.552899
0.568855
0.580707
0.589808
0.596472
0.601205
0.604424
0.606268
0.606663
0.606175
0.604921
0.602861
0.600302
0.597264
0.593728
0.589783
0.585446
0.580802
0.575948
0.570912
0.565702
0.560304
0.554689
0.548861
0.542838
0.536613
0.530152
0.523424
0.516428
0.509167
0.501573
0.493731
0.485461
0.476879
0.468356
0.45835
0.448729
0.439126
0.419017
0.368867
0.266482
0.152385
0.054506
0.134236
0.137497
0.201809
0.280253
0.344417
0.394053
0.432545
0.462663
0.48618
0.504533
0.519361
0.530947
0.540075
0.547154
0.552338
0.55591
0.558285
0.559615
0.559839
0.559429
0.558338
0.556522
0.554225
0.551425
0.548188
0.544662
0.540876
0.536846
0.532564
0.528039
0.523223
0.518138
0.512782
0.50712
0.501129
0.494809
0.488155
0.481138
0.473808
0.466027
0.457986
0.449808
0.440211
0.431215
0.421662
0.401322
0.35146
0.253895
0.144983
0.0512978
0.0176975
0.0471283
0.0918882
0.157663
0.224881
0.282573
0.3296
0.367629
0.398115
0.422754
0.442961
0.45941
0.472949
0.483948
0.492574
0.499573
0.505162
0.509346
0.512188
0.514079
0.515132
0.515279
0.514888
0.513847
0.512178
0.510146
0.507764
0.505041
0.501987
0.498655
0.494983
0.490941
0.486548
0.481766
0.476587
0.471013
0.465038
0.458657
0.451888
0.444663
0.437197
0.429401
0.42033
0.411981
0.402454
0.381931
0.332857
0.240581
0.137139
0.0479138
0.00499934
0.0177897
0.0371146
0.0706193
0.119095
0.173158
0.223127
0.266365
0.302652
0.333044
0.358287
0.379551
0.397436
0.412436
0.424763
0.435346
0.444266
0.451501
0.457243
0.461799
0.465308
0.46779
0.469498
0.470458
0.470642
0.470369
0.469621
0.468398
0.46675
0.464787
0.462429
0.459574
0.456287
0.452513
0.448266
0.443547
0.438361
0.432721
0.426613
0.420047
0.413226
0.40589
0.397523
0.389849
0.380312
0.35967
0.312053
0.225674
0.128281
0.0441174
0.00218827
0.00824689
0.0166954
0.0299638
0.0515829
0.0836273
0.123168
0.164197
0.202249
0.236202
0.265676
0.291292
0.313261
0.332191
0.348382
0.362445
0.374604
0.38496
0.393754
0.401214
0.407427
0.412482
0.416597
0.419827
0.422184
0.423869
0.424977
0.425535
0.425511
0.425152
0.424283
0.422761
0.420756
0.41814
0.414972
0.411248
0.406988
0.402237
0.396916
0.391157
0.385086
0.378354
0.37092
0.363943
0.35433
0.333714
0.288329
0.208411
0.117817
0.0396658
0.00121103
0.00451966
0.00883115
0.0147415
0.0233327
0.0361877
0.0549443
0.0802052
0.109911
0.141014
0.170847
0.198394
0.223059
0.245054
0.264543
0.281768
0.297054
0.310553
0.322373
0.332755
0.341775
0.349543
0.356243
0.361917
0.366612
0.370488
0.373683
0.37622
0.378092
0.379418
0.380143
0.380092
0.379555
0.378226
0.376281
0.373697
0.370514
0.366807
0.362437
0.357651
0.352464
0.346573
0.340279
0.333966
0.32427
0.304072
0.261562
0.188481
0.105399
0.0344489
0.000762989
0.00276554
0.0052625
0.00839898
0.0124579
0.0178906
0.0253341
0.0356703
0.049661
0.0676004
0.0888166
0.111822
0.134864
0.157058
0.177856
0.196988
0.214491
0.230492
0.24491
0.257894
0.269551
0.279958
0.289206
0.297352
0.304452
0.310666
0.316081
0.320702
0.324543
0.327652
0.330029
0.331615
0.332503
0.332503
0.332011
0.330713
0.328768
0.326272
0.32306
0.319442
0.315335
0.310608
0.305537
0.299814
0.290246
0.271147
0.231767
0.165763
0.0907922
0.0284768
0.000515235
0.00181191
0.00338327
0.00526302
0.00752834
0.0103053
0.0137757
0.0182015
0.023918
0.0313332
0.0408619
0.0527373
0.0668963
0.0828319
0.099806
0.117076
0.134096
0.150568
0.166145
0.180661
0.194116
0.206526
0.217868
0.228171
0.237468
0.245866
0.253347
0.259933
0.265628
0.270448
0.274455
0.277642
0.280025
0.281571
0.282448
0.282476
0.282059
0.280973
0.279146
0.276946
0.274166
0.270847
0.266996
0.261977
0.252987
0.235478
0.199108
0.140423
0.0740058
0.0220168
0.000359736
0.00123577
0.00227615
0.00348906
0.00489532
0.00653116
0.00845182
0.0107338
0.0134778
0.0168137
0.0209068
0.0259433
0.0321434
0.0396515
0.0485367
0.0588005
0.0702982
0.0827803
0.095833
0.109044
0.122114
0.134843
0.146999
0.158444
0.169116
0.179002
0.187992
0.196088
0.20327
0.209554
0.215
0.219633
0.223464
0.226527
0.228888
0.230525
0.231613
0.232055
0.231907
0.231381
0.230148
0.228307
0.225735
0.221686
0.213691
0.197607
0.164037
0.112958
0.0556051
0.0156564
0.000254302
0.000859829
0.00156924
0.00238535
0.00331418
0.00436661
0.00555938
0.00691642
0.00847018
0.0102618
0.0123453
0.0147807
0.0176454
0.0210236
0.0250159
0.0297145
0.0352169
0.0415971
0.0488991
0.0570694
0.0660448
0.0756953
0.0857314
0.0958946
0.105973
0.115789
0.125069
0.133681
0.141552
0.148692
0.155119
0.160864
0.165946
0.170391
0.174224
0.17746
0.180161
0.182305
0.183898
0.185026
0.185303
0.184912
0.183608
0.180526
0.173461
0.158164
0.127417
0.0840855
0.0370395
0.00998116
0.00017937
0.000600796
0.00109096
0.0016518
0.00228577
0.00299654
0.00378955
0.00467233
0.0056554
0.00675264
0.00798269
0.00936607
0.0109291
0.0127021
0.0147252
0.0170356
0.0196818
0.0227265
0.0262378
0.0302785
0.0348923
0.0401308
0.0459923
0.0524114
0.0593304
0.0666438
0.074068
0.0814014
0.0885028
0.0953177
0.101805
0.10793
0.113661
0.118979
0.123864
0.128301
0.132277
0.135764
0.138724
0.141116
0.142659
0.143095
0.142534
0.140037
0.133189
0.117936
0.0905669
0.0549176
0.0209041
0.00555846
0.000124514
0.000415487
0.000753687
0.00114112
0.00157955
0.00207066
0.00261645
0.00321927
0.00388225
0.00461007
0.00540864
0.00628541
0.00725056
0.00831605
0.00949701
0.010811
0.0122793
0.0139313
0.015801
0.017929
0.0203502
0.0231111
0.0262615
0.0298174
0.0337711
0.0381636
0.0429403
0.04797
0.0531465
0.0584206
0.0637357
0.0690252
0.0742223
0.0792627
0.084085
0.0886311
0.092842
0.0966472
0.0999541
0.102626
0.104392
0.104915
0.104262
0.10132
0.0937132
0.0786559
0.0555386
0.0287141
0.00985664
0.00275431
8.35125e-05
0.000279387
0.000508806
0.000773971
0.00107644
0.00141724
0.0017971
0.00221671
0.00267675
0.00317836
0.00372336
0.00431413
0.0049543
0.00564865
0.00640377
0.00722918
0.00813695
0.00914215
0.0102644
0.0115281
0.0129599
0.014593
0.0164637
0.0186023
0.0210169
0.0237371
0.0267726
0.0300927
0.0336189
0.0373055
0.0411127
0.0449889
0.0488787
0.0527228
0.0564581
0.0600166
0.0633242
0.0662897
0.0687755
0.0705964
0.0714717
0.0712678
0.0696365
0.0652752
0.0567372
0.0434465
0.0261991
0.0115761
0.0040277
0.00120912
5.23318e-05
0.000177578
0.000327516
0.000504279
0.000709107
0.000942579
0.00120484
0.00149582
0.00181537
0.00216333
0.00254009
0.0029464
0.00338318
0.00385231
0.00435675
0.00490131
0.00549293
0.00614114
0.0068585
0.00766183
0.00857258
0.00961803
0.0108278
0.0122266
0.0138335
0.0156634
0.0177095
0.0199699
0.0223895
0.0249152
0.0275069
0.0301191
0.0327024
0.0352057
0.0375726
0.0397407
0.0416341
0.0431725
0.0442136
0.0445234
0.044174
0.0427406
0.0394931
0.034212
0.0266703
0.0176159
0.00918474
0.00392591
0.00145187
0.000453786
2.80967e-05
0.000100379
0.000191813
0.000303687
0.000436575
0.000590538
0.00076551
0.000961223
0.00117722
0.00141314
0.00166873
0.0019441
0.00223935
0.00255484
0.00289175
0.0032526
0.00364159
0.00406499
0.00453066
0.00504971
0.00563916
0.0063212
0.00712169
0.00806194
0.0091536
0.0104031
0.011796
0.0133214
0.0149368
0.0165919
0.0182447
0.0198492
0.0213544
0.0227097
0.0238646
0.0247688
0.0253423
0.0255015
0.0253172
0.0245452
0.0229513
0.020583
0.0173515
0.0133994
0.00915009
0.00537271
0.00266509
0.00114962
0.000435234
0.000136067
9.28185e-06
4.12429e-05
9.00725e-05
0.000153142
0.000230314
0.000321642
0.000427597
0.000548009
0.000682579
0.000831174
0.000993556
0.00116949
0.00135875
0.00156092
0.00177564
0.00200339
0.00224654
0.00250987
0.00279989
0.00312386
0.00349301
0.00392337
0.00443282
0.00503712
0.00574189
0.0065454
0.00742877
0.00837676
0.00935452
0.0103195
0.0112325
0.0120522
0.0127348
0.013236
0.0135124
0.0135567
0.0134018
0.0128614
0.0119162
0.010665
0.00911161
0.00734475
0.00550433
0.00376857
0.0023138
0.00125898
0.000597941
0.000251061
9.38263e-05
2.83637e-05
3.75095e-07
7.52618e-06
2.13158e-05
4.22195e-05
7.06423e-05
0.000106908
0.000151422
0.000204644
0.000266874
0.000338201
0.000418487
0.000507221
0.000603177
0.000703497
0.000811146
0.000925481
0.00104622
0.001175
0.00131671
0.00147677
0.00166013
0.00187243
0.00211846
0.00240058
0.00271748
0.00306309
0.00342556
0.00379117
0.00414181
0.00445335
0.00470296
0.00487041
0.00493944
0.00489766
0.00473819
0.00446224
0.00407747
0.00359818
0.00304827
0.00247992
0.00192183
0.00140795
0.000966546
0.000616523
0.000362655
0.000197423
9.16501e-05
3.12521e-05
1.01017e-05
3.24057e-06
)
;

boundaryField
{
    AXIS
    {
        type            empty;
    }
    OUTLET
    {
        type            inletOutlet;
        inletValue      uniform 0;
        value           nonuniform List<scalar> 
25
(
0.0692213
0.0689031
0.0681071
0.0668229
0.0650797
0.062919
0.0603932
0.0575648
0.054506
0.0512978
0.0479138
0.0441174
0.0396658
0.0344489
0.0284768
0.0220168
0.0156564
0.00998116
0.00555846
0.00275431
0.00120912
0.000453786
0.000136067
2.83637e-05
3.24057e-06
)
;
    }
    COFLOW
    {
        type            fixedValue;
        value           uniform 0;
    }
    PILOT
    {
        type            fixedValue;
        value           uniform 0.271;
    }
    FUEL
    {
        type            fixedValue;
        value           uniform 1;
    }
    WALL
    {
        type            zeroGradient;
    }
    front
    {
        type            wedge;
    }
    back
    {
        type            wedge;
    }
}


// ************************************************************************* //
