/*--------------------------------*- C++ -*----------------------------------*\
| =========                 |                                                 |
| \\      /  F ield         | OpenFOAM: The Open Source CFD Toolbox           |
|  \\    /   O peration     | Version:  2.4.x                                 |
|   \\  /    A nd           | Web:      www.OpenFOAM.org                      |
|    \\/     M anipulation  |                                                 |
\*---------------------------------------------------------------------------*/
FoamFile
{
    version     2.0;
    format      ascii;
    class       volScalarField;
    location    "0.08";
    object      chi;
}
// * * * * * * * * * * * * * * * * * * * * * * * * * * * * * * * * * * * * * //

dimensions      [0 0 -1 0 0 0 0];

internalField   nonuniform List<scalar> 
1250
(
0.0306915
0.210793
0.657913
1.5054
2.8307
4.54475
6.47508
8.44677
10.2247
11.7527
13.0152
13.8691
14.464
14.7416
14.8561
14.7504
14.4281
13.9734
13.4423
12.8489
12.2042
11.5481
10.89
10.232
9.59972
8.98514
8.40162
7.84621
7.32529
6.83483
6.37938
5.95621
5.56498
5.20641
4.87818
4.57657
4.31238
4.05924
3.84829
3.65709
3.44097
3.45427
3.8632
5.44416
8.1649
7.21323
2.87693
0.464287
0.04612
0.00476046
0.0360013
0.254764
0.818739
1.88974
3.50657
5.49536
7.64686
9.70059
11.5043
12.9771
14.1362
14.9083
15.366
15.5639
15.5814
15.3399
14.9376
14.4233
13.8268
13.1771
12.4952
11.7999
11.1087
10.4302
9.77276
9.14204
8.5415
7.97391
7.44023
6.94086
6.47608
6.04576
5.64777
5.28405
4.95065
4.64486
4.37708
4.12026
3.90608
3.71214
3.49239
3.50276
3.91191
5.49273
8.15898
7.1895
2.85889
0.461463
0.0458164
0.00473246
0.0525476
0.407784
1.40019
3.21252
5.6552
8.30539
10.8211
12.9796
14.678
15.9343
16.7998
17.2809
17.4671
17.4313
17.1273
16.6573
16.0707
15.3977
14.6648
13.8993
13.1213
12.346
11.5882
10.8543
10.1486
9.47782
8.84382
8.24713
7.68867
7.16779
6.68446
6.23811
5.82631
5.45068
5.10655
4.79158
4.51599
4.25119
4.03003
3.83138
3.60205
3.60615
4.01698
5.59175
8.14294
7.13068
2.80882
0.452825
0.0449222
0.00465809
0.110094
1.00324
3.57849
7.4279
11.3714
14.7958
17.388
19.287
20.3835
21.0101
21.2467
21.1581
20.7825
20.2151
19.4891
18.6601
17.776
16.8537
15.9119
14.9719
14.0497
13.1549
12.2981
11.481
10.7047
9.97316
9.28869
8.64935
8.05392
7.50134
6.99056
6.52059
6.08831
5.69518
5.33527
5.00692
4.71976
4.44314
4.21218
4.0057
3.76423
3.75318
4.17405
5.747
8.11928
7.03655
2.72633
0.437829
0.0433904
0.00453484
0.555555
4.81207
12.8504
20.0859
24.8737
27.8491
28.9995
29.4895
29.1335
28.4396
27.4944
26.3975
25.1739
23.8865
22.5634
21.2488
19.9679
18.7168
17.5037
16.3397
15.2328
14.1852
13.2022
12.2794
11.413
10.6045
9.854
9.15979
8.51758
7.92459
7.37901
6.879
6.42072
6.00548
5.62566
5.28053
4.97843
4.68678
4.444
4.22695
3.97057
3.93992
4.37592
5.94215
8.08273
6.90231
2.61527
0.416898
0.0412781
0.00436739
12.1812
30.1615
43.0366
47.431
48.4067
47.8285
45.5493
42.935
40.1867
37.5456
35.0103
32.5937
30.2923
28.131
26.1041
24.2268
22.4862
20.8559
19.3319
17.9126
16.5948
15.3729
14.2454
13.2014
12.2324
11.3362
10.5095
9.75045
9.05413
8.41481
7.82934
7.29465
6.80648
6.36565
5.96312
5.59897
5.27917
4.97021
4.71455
4.48395
4.21172
4.1716
4.61197
6.15714
8.02278
6.72279
2.48142
0.390856
0.0386809
0.00416259
23.7887
62.6094
75.9645
76.2411
72.753
68.5348
62.4061
56.6678
51.4349
46.7952
42.6228
38.8648
35.4834
32.4526
29.7227
27.2852
25.0857
23.074
21.2367
19.5592
18.0264
16.6261
15.3501
14.1809
13.1055
12.1181
11.2124
10.3845
9.63011
8.94194
8.31457
7.74332
7.22369
6.75564
6.32911
5.94518
5.60588
5.27859
5.00989
4.76256
4.47553
4.43474
4.87433
6.37802
7.92838
6.50145
2.3261
0.360757
0.0357262
0.00392929
9.66982
55.4308
84.359
89.5055
86.5926
81.154
73.8443
66.6752
60.0759
54.1664
48.8605
44.1304
39.938
36.2314
32.9431
30.0432
27.4608
25.1264
23.0188
21.1145
19.391
17.8313
16.42
15.1356
13.961
12.888
11.9079
11.0155
10.2048
9.46938
8.80218
8.19598
7.64621
7.15169
6.7018
6.29861
5.93942
5.59443
5.31319
5.04587
4.74849
4.71318
5.15273
6.59015
7.78822
6.23978
2.15363
0.327938
0.0325648
0.0036778
3.85726
32.1382
65.7301
81.8207
84.581
82.278
76.846
70.3336
63.9599
57.8762
52.3419
47.3405
42.8585
38.8529
35.2856
32.123
29.3027
26.7573
24.4659
22.4026
20.5422
18.8642
17.3487
15.9731
14.7186
13.5752
12.5338
11.5888
10.7321
9.95623
9.25553
8.61999
8.0447
7.52722
7.05693
6.63655
6.25828
5.898
5.60514
5.31531
5.01609
4.99037
5.43747
6.75527
7.60685
5.94023
1.96976
0.293847
0.0293507
0.0034188
1.7944
12.542
34.9655
55.981
67.4785
71.1328
70.4791
66.8926
62.6516
57.5993
52.7678
48.0813
43.7784
39.8768
36.3569
33.184
30.3107
27.7144
25.3714
23.2548
21.3365
19.6
18.0272
16.5976
15.2942
14.1065
13.0262
12.0483
11.1624
10.3601
9.63673
8.98116
8.38832
7.85417
7.36893
6.93501
6.54013
6.16851
5.86471
5.55171
5.26279
5.25293
5.70287
6.8448
7.39134
5.60773
1.77992
0.259937
0.0262236
0.00316248
0.170341
2.59075
11.4581
26.7247
41.5403
51.164
55.7537
56.4446
55.3483
52.3826
49.4353
45.8357
42.3869
39.0799
35.9615
33.064
30.3654
27.8822
25.6117
23.5404
21.6522
19.9297
18.3603
16.9273
15.6169
14.421
13.3336
12.3503
11.4573
10.6482
9.91695
9.25397
8.6545
8.11239
7.61948
7.17701
6.76975
6.3914
6.07688
5.74343
5.47865
5.48943
5.93073
6.8569
7.13496
5.23783
1.58425
0.226516
0.0232042
0.00290922
0.0455547
0.515124
2.56504
8.00292
17.1003
27.343
35.3501
40.1092
42.3669
42.4893
41.782
39.9611
38.0245
35.812
33.4495
31.1855
28.9786
26.8721
24.892
23.0366
21.31
19.7066
18.2264
16.8626
15.6046
14.4507
13.3969
12.4387
11.5663
10.7748
10.0567
9.40376
8.81236
8.27407
7.78333
7.33887
6.92563
6.54647
6.22199
5.87711
5.64981
5.69168
6.08461
6.79204
6.82278
4.80004
1.3743
0.192154
0.0201385
0.00264237
0.0203306
0.151478
0.586959
1.76177
4.45234
9.16265
15.379
21.3125
25.8385
28.6818
30.2308
30.6113
30.3495
29.5974
28.3994
27.1608
25.7384
24.2462
22.7924
21.3605
19.9681
18.6298
17.3643
16.1723
15.055
14.0174
13.06
12.1796
11.3728
10.6363
9.96296
9.34789
8.7875
8.27148
7.79844
7.36449
6.95699
6.58528
6.25566
5.91945
5.73597
5.79354
6.10635
6.65239
6.43346
4.25546
1.14648
0.156088
0.0169263
0.00234637
0.0112742
0.0622404
0.184982
0.449795
1.00559
2.12847
4.1526
7.13839
10.7383
14.1742
16.9882
19.0066
20.2943
20.9784
21.1301
20.9457
20.5277
19.8484
19.1182
18.2868
17.3791
16.4504
15.5405
14.6428
13.772
12.9373
12.1536
11.4187
10.736
10.1032
9.51609
8.97476
8.47346
8.00399
7.56917
7.163
6.77808
6.42745
6.1064
5.82508
5.69855
5.73438
5.95311
6.39969
5.93474
3.59861
0.904495
0.119368
0.013634
0.00201863
0.00692335
0.031487
0.0772702
0.157817
0.296799
0.538234
0.963318
1.69549
2.84874
4.45056
6.34931
8.3052
10.0691
11.5301
12.6294
13.3793
13.8387
14.0292
14.0188
13.849
13.5452
13.1386
12.6866
12.1711
11.6322
11.0782
10.5443
10.0213
9.51964
9.04222
8.58888
8.16208
7.75529
7.366
6.99778
6.64563
6.31069
5.99904
5.73066
5.53038
5.44314
5.46688
5.67611
5.96803
5.2787
2.85025
0.65585
0.0842345
0.0104219
0.00166579
0.0044827
0.0179334
0.0388844
0.0704817
0.117323
0.18693
0.292118
0.453538
0.703033
1.08332
1.64084
2.39151
3.29625
4.30288
5.32463
6.27781
7.11401
7.80177
8.32591
8.69001
8.90845
8.99697
8.98365
8.87665
8.70268
8.48542
8.24304
7.96972
7.68819
7.40285
7.11667
6.83411
6.55381
6.27659
6.00573
5.74238
5.49437
5.26378
5.08313
4.97268
4.92469
4.99676
5.22561
5.29704
4.41745
2.05395
0.421936
0.0538759
0.00749631
0.00130344
0.0029618
0.0109285
0.0219173
0.0367773
0.0565701
0.082796
0.117778
0.165045
0.229871
0.319882
0.445579
0.620341
0.858878
1.17149
1.558
2.01042
2.5148
3.04541
3.56812
4.05289
4.47901
4.83124
5.10383
5.2945
5.41092
5.4665
5.47394
5.43986
5.37467
5.28457
5.17506
5.05659
4.92427
4.78432
4.64046
4.49989
4.37463
4.25945
4.17895
4.15926
4.20808
4.34815
4.55237
4.39893
3.35783
1.28571
0.233611
0.0310962
0.00504733
0.000955025
0.00196303
0.00689751
0.0131927
0.0211041
0.0309151
0.0429726
0.0577476
0.0759118
0.0984269
0.12663
0.162412
0.208105
0.266799
0.342091
0.437816
0.559197
0.710546
0.893452
1.10521
1.34247
1.59747
1.85751
2.10912
2.33948
2.5394
2.70679
2.84238
2.94843
3.02817
3.08489
3.12153
3.14218
3.14921
3.14605
3.13635
3.12631
3.12441
3.13642
3.17643
3.25493
3.38307
3.56203
3.64293
3.31335
2.16858
0.65463
0.108636
0.0165047
0.00316803
0.000645613
0.00128884
0.00440962
0.00821458
0.012793
0.0182298
0.0246125
0.0320409
0.0406391
0.0505864
0.0621262
0.0756037
0.0914333
0.110162
0.132455
0.159231
0.191523
0.230612
0.278006
0.334978
0.402961
0.483562
0.575561
0.677942
0.788893
0.902632
1.01666
1.12909
1.23829
1.34294
1.44218
1.53551
1.62299
1.7053
1.78366
1.8602
1.93826
2.02393
2.12126
2.23479
2.36924
2.52366
2.64047
2.57851
2.1292
1.0591
0.25584
0.0435122
0.00822054
0.00183118
0.000395726
0.00082791
0.00280398
0.00517077
0.0079703
0.0112306
0.014971
0.0192055
0.0239267
0.0291711
0.0349512
0.0413078
0.0483068
0.0560456
0.0646601
0.0743542
0.085366
0.0979705
0.112557
0.129591
0.149559
0.172893
0.199772
0.232057
0.270955
0.314734
0.363573
0.418265
0.478579
0.544027
0.614243
0.688685
0.766875
0.848682
0.934263
1.02421
1.12002
1.224
1.3359
1.45423
1.57426
1.66711
1.669
1.49631
0.983952
0.352737
0.0779358
0.0162692
0.00384867
0.000951413
0.000214321
0.000511409
0.00174251
0.00323538
0.00501392
0.00708805
0.00945372
0.0120951
0.0149907
0.0181098
0.0214301
0.0249235
0.0285927
0.0324259
0.0364582
0.0407554
0.0453998
0.0504741
0.056118
0.0625195
0.0698971
0.078507
0.0886375
0.100662
0.115905
0.134817
0.156385
0.181878
0.211631
0.245834
0.284686
0.328315
0.376853
0.430458
0.489318
0.553602
0.623092
0.697127
0.772556
0.842502
0.889941
0.88942
0.812017
0.586559
0.277446
0.0847879
0.0220506
0.00596959
0.00163554
0.000429809
9.95816e-05
0.000294705
0.00103892
0.00199024
0.00316599
0.00456325
0.0061624
0.00793221
0.00983794
0.0118384
0.0138914
0.0159864
0.0181091
0.0201889
0.0222602
0.024333
0.0265042
0.0287383
0.0311402
0.0337768
0.0368576
0.0405598
0.0450966
0.0507297
0.0580353
0.0675349
0.0787282
0.092023
0.10771
0.125871
0.146605
0.169983
0.196044
0.224778
0.255962
0.289071
0.322778
0.354706
0.380198
0.390692
0.382106
0.337916
0.245929
0.137082
0.0566631
0.0197063
0.00647971
0.00203614
0.000596279
0.000162156
3.82881e-05
0.0001485
0.00058937
0.00122514
0.00206243
0.00307593
0.00422887
0.00548675
0.00679291
0.00811149
0.00941441
0.0106773
0.0118811
0.0130097
0.0140485
0.0150177
0.0159499
0.0168735
0.0178028
0.0188219
0.0200652
0.021627
0.0237026
0.026562
0.0303615
0.0354344
0.0415157
0.0486921
0.0570642
0.0665255
0.0769627
0.0882214
0.100072
0.112166
0.123936
0.134619
0.142862
0.146618
0.145256
0.135259
0.1133
0.0831069
0.0516063
0.0269061
0.0121322
0.00488004
0.00176976
0.000582214
0.000174678
4.84046e-05
1.15106e-05
5.74567e-05
0.000347439
0.000863998
0.00155282
0.00234715
0.00322498
0.00412048
0.00498829
0.00582912
0.00662155
0.00734698
0.00798889
0.00852672
0.00890987
0.00922417
0.00955213
0.00988373
0.0100816
0.0102629
0.0106168
0.0112514
0.0122789
0.0137236
0.0156656
0.0182396
0.021297
0.0248514
0.0290241
0.0335906
0.0381931
0.0426479
0.0466547
0.0499364
0.052029
0.0525561
0.0517606
0.0488626
0.0430846
0.0354286
0.026606
0.0179797
0.0107249
0.00555507
0.00256132
0.00104518
0.00038132
0.000125335
3.7609e-05
1.04625e-05
2.45494e-06
2.1539e-05
0.000372633
0.000827681
0.00129787
0.0018068
0.00234208
0.0028631
0.00339759
0.00394234
0.00444417
0.00488346
0.00524224
0.00550874
0.0056786
0.00573598
0.00567773
0.00554047
0.00540213
0.00531557
0.00533152
0.0055017
0.00587196
0.00647401
0.00731791
0.00841219
0.00975505
0.0112922
0.0129585
0.0146828
0.0163561
0.0178309
0.0189408
0.0195162
0.0194225
0.0185654
0.0169852
0.0147504
0.0120546
0.00919041
0.00646041
0.00415221
0.0024157
0.00126138
0.000590099
0.000250742
9.89487e-05
3.08606e-05
6.999e-06
1.75635e-06
5.09839e-07
)
;

boundaryField
{
    AXIS
    {
        type            empty;
    }
    OUTLET
    {
        type            zeroGradient;
    }
    COFLOW
    {
        type            calculated;
        value           uniform 0;
    }
    PILOT
    {
        type            calculated;
        value           uniform 0;
    }
    FUEL
    {
        type            calculated;
        value           uniform 0;
    }
    WALL
    {
        type            zeroGradient;
    }
    front
    {
        type            wedge;
    }
    back
    {
        type            wedge;
    }
}


// ************************************************************************* //
