/*--------------------------------*- C++ -*----------------------------------*\
| =========                 |                                                 |
| \\      /  F ield         | OpenFOAM: The Open Source CFD Toolbox           |
|  \\    /   O peration     | Version:  2.4.x                                 |
|   \\  /    A nd           | Web:      www.OpenFOAM.org                      |
|    \\/     M anipulation  |                                                 |
\*---------------------------------------------------------------------------*/
FoamFile
{
    version     2.0;
    format      ascii;
    class       volScalarField;
    location    "0.08";
    object      epsilon;
}
// * * * * * * * * * * * * * * * * * * * * * * * * * * * * * * * * * * * * * //

dimensions      [0 2 -3 0 0 0 0];

internalField   nonuniform List<scalar> 
1250
(
76.2157
136.072
196.29
280.387
388.742
512.37
636.893
757.304
850.698
926.325
986.477
1022.15
1047.95
1051.39
1047.7
1032.11
1009.29
978.929
945.811
908.777
867.219
825.66
784.637
743.762
704.537
664.669
627.017
590.532
556.311
523.505
492.919
463.942
437.203
412.086
388.708
366.974
346.713
326.751
310.733
294
274.837
274.561
302.766
410.106
767.639
753.337
380.518
77.7828
17.8752
7.82411
80.211
146.39
221.118
325.836
455.493
596.286
735.399
854.684
947.278
1015.66
1067.51
1098.57
1113.15
1110.97
1099.75
1075.85
1046.53
1012.58
974.015
932.428
888.666
843.882
800.167
758.358
717.007
676.102
636.873
599.553
564.161
530.749
499.343
469.817
442.478
416.979
393.16
371.067
350.481
330.235
313.927
296.866
277.468
276.925
305.205
413.45
767.098
751.196
379.229
77.5332
17.8275
7.81367
88.0661
177.074
300.886
469.096
657.667
838.009
990.483
1104.56
1182.45
1230.85
1261.62
1270.05
1263.54
1243.95
1211.2
1171.16
1128.96
1083.63
1034.9
984.578
933.712
882.999
834.316
788.587
743.81
699.93
658.008
618.365
581.011
545.907
513.039
482.25
453.778
427.292
402.616
379.719
358.431
337.576
320.63
303.007
282.897
282.04
310.442
418.617
765.787
745.59
374.51
76.5363
17.6603
7.7846
104.865
271.66
545.522
872.855
1156.49
1368.49
1503.36
1580.02
1605.15
1600.31
1583.65
1548.44
1499.96
1443.75
1380.56
1315.16
1252.09
1188.7
1124.55
1061.25
999.811
940.342
884.379
832.372
782.712
734.592
688.685
645.73
605.468
567.922
532.909
500.3
470.151
442.2
416.282
392.221
369.926
348.184
330.336
311.893
290.925
289.595
318.468
427.62
764.512
737.085
366.023
74.6626
17.3545
7.73496
200.263
696.612
1385.19
1972.63
2267.92
2391.34
2384.4
2336.44
2235.75
2128.56
2026.06
1919.81
1810.76
1703
1596.98
1497.67
1407.15
1320.19
1236.43
1156.87
1082.11
1011.67
946.572
886.795
830.581
777.339
726.852
679.654
635.849
595.245
557.568
522.692
490.469
460.694
433.218
407.724
384.182
361.338
342.408
322.93
301.027
299.33
328.972
440.412
762.34
725.458
353.708
71.9179
16.9132
7.66538
1116.04
2830.15
3975.08
4108.24
4031.45
3834.58
3540.77
3257.34
2986.85
2749.01
2537.9
2341.44
2157.89
1989.93
1836.47
1699.88
1578.58
1465.36
1359.93
1262.59
1173.22
1090.71
1015.54
947.223
883.849
824.666
769.316
717.691
669.881
625.902
585.292
547.851
513.326
481.502
452.24
425.177
400.243
376.182
356.089
335.42
312.684
310.812
341.552
456.276
758.852
710.651
337.752
68.391
16.3494
7.57762
1209.54
4163.34
5453.24
5514.22
5304.9
4974.9
4496.66
4050.03
3649.17
3305.31
3000.74
2725.51
2478.48
2259.46
2063.43
1892.86
1743.19
1605.64
1480.05
1366.14
1262.94
1168.94
1084.17
1007.71
937.501
872.434
812.183
756.379
704.778
657.384
613.82
573.778
536.939
503.079
471.972
443.303
416.97
391.694
370.465
348.541
325.274
323.577
355.69
474.599
753.031
692.724
318.365
64.2064
15.6833
7.47448
497.474
2393.89
4472.99
5235.96
5312.98
5157.65
4800.92
4388.23
3989.85
3626.71
3289.22
2979.71
2701.63
2454.18
2234.12
2042.88
1873.96
1719.41
1579.19
1452.97
1339.33
1236.67
1144.41
1061.49
985.727
915.711
851.178
791.821
737.052
686.736
640.574
598.209
559.281
523.598
490.846
460.704
433.075
406.736
384.509
361.399
338.117
337.021
370.738
494.863
743.689
671.715
295.955
59.5379
14.9433
7.35967
249.629
1018.38
2490.52
3702.23
4306.58
4491.32
4418.36
4198.94
3914.14
3615.9
3317.96
3033.01
2768.98
2527.96
2310.55
2119.8
1947.2
1786.63
1640.9
1509.69
1391.44
1284.59
1188.38
1101.77
1022.47
949.159
881.752
819.885
763.084
710.8
662.752
618.696
578.203
541.153
507.153
475.929
447.25
420.095
397.148
373.081
350.5
350.361
385.766
515.237
730.781
647.813
271.036
54.5878
14.1612
7.2374
148.995
364.85
964.045
1897.53
2713.61
3224.24
3473.48
3519.37
3457.61
3305.22
3107.67
2891.32
2676.94
2471.78
2282
2110.31
1947.28
1793.56
1653.45
1526.16
1410.3
1304.79
1209.05
1122.05
1041.87
967.682
899.46
836.846
779.339
726.456
677.738
632.826
591.586
553.851
519.219
487.448
458.172
430.683
407.326
382.676
361.62
362.779
399.874
533.359
714.357
621.391
244.234
49.5715
13.369
7.11197
32.0683
110.271
305.898
712.04
1306.79
1879.12
2302.01
2559.27
2684.94
2687.9
2642
2538.15
2412.24
2276.38
2140.14
2006.16
1868.8
1735.76
1611.95
1496.83
1390.02
1291.27
1200.49
1116.89
1039.24
967.181
900.73
839.55
783.141
731.282
683.19
638.619
597.714
560.208
525.736
494.077
464.817
437.571
414.224
389.577
370.94
374.006
412.459
548.228
693.073
591.161
216.185
44.5452
12.5714
6.98338
17.1669
42.8776
101.877
222.25
454.456
811.058
1197.83
1526.99
1767.59
1912.87
1988.13
1997.56
1976.56
1925.34
1852.97
1770.01
1678.08
1584.82
1492.82
1402.47
1315.08
1231.59
1152.74
1078.41
1008.33
942.56
881.163
824.022
770.926
721.834
675.942
633.258
594.034
557.901
524.6
493.927
465.513
439.296
416.568
392.88
377.828
383.957
422.703
559.02
665.571
552.891
186.66
39.3125
11.7296
6.84471
13.1964
23.5326
42.3814
76.6523
140.771
255.228
445.018
678.393
908.833
1104.2
1252.05
1351.12
1411.66
1438.79
1435.76
1418.23
1381.43
1335.01
1283.08
1226.62
1167.56
1107.69
1048.45
990.607
934.633
880.651
829.027
780.039
733.804
690.388
649.282
610.935
575.52
542.551
512.013
483.666
457.27
433.144
411.942
390.687
380.424
389.431
429.222
563.909
629.331
500.937
156.086
33.7623
10.8153
6.69122
11.6072
16.4097
23.8295
34.9627
52.8488
83.2697
134.965
217.073
335.735
471.634
606.935
728.454
828.624
904.971
956.852
989.27
1003.8
1002.92
994.758
976.044
949.877
919.075
885.315
849.593
812.649
774.838
737.141
700.098
664.132
629.378
596.088
564.913
535.654
507.99
482.168
457.941
435.205
414.894
396.879
380.492
375.961
387.496
431.119
557.842
582.41
433.052
124.402
27.9464
9.84121
6.52461
10.8403
13.2532
16.6381
21.1582
27.3459
36.2843
49.9775
71.4826
104.177
151.666
214.953
289.141
366.625
441.058
507.704
563.597
607.816
640.442
663.192
676.536
680.865
678.788
672.076
659.958
643.908
624.834
603.955
581.666
558.778
535.817
513.257
491.593
470.665
450.472
431.337
413.108
395.978
381.093
368.364
359.438
360.537
375.834
428.999
532.841
524.244
346.544
92.8169
22.1176
8.85053
6.35088
10.4328
11.6633
13.3264
15.4238
18.0512
21.4306
25.9502
32.2075
41.0063
53.4826
71.1195
94.778
124.961
160.94
201.125
242.934
283.863
321.96
355.851
384.443
407.131
424.157
436.214
443.408
445.143
443.715
439.566
432.386
423.57
413.539
402.785
391.834
380.689
369.551
358.735
348.293
338.839
330.975
325.726
325.541
331.831
354.589
416.029
480.501
449.128
248.73
62.8151
16.7303
7.91255
6.17965
10.2034
10.8014
11.6245
12.6506
13.8894
15.3821
17.2113
19.5039
22.419
26.1824
31.1419
37.5615
45.8236
56.2815
69.231
84.7756
102.862
123.131
144.902
167.126
188.741
208.757
226.636
241.874
253.874
263.061
269.732
274.028
276.433
277.307
277.058
276.24
274.692
272.8
270.834
269.015
268.27
268.768
271.395
278.265
292.802
323.718
380.18
404.537
351.266
153.742
38.5695
12.3394
7.10817
6.02249
10.0721
10.3214
10.7043
11.1981
11.7974
12.5043
13.3316
14.3036
15.456
16.8404
18.5182
20.5294
22.9542
25.8764
29.4157
33.6767
38.8074
44.9405
52.2164
60.6522
70.1447
80.45
91.3494
102.441
113.156
123.208
132.464
140.869
148.469
155.374
161.654
167.477
172.925
178.153
183.373
188.833
195.19
203.021
212.954
226.494
246.902
280.055
314.296
309.838
231.674
79.2864
22.1071
9.2497
6.49551
5.88643
9.9988
10.0677
10.2177
10.4374
10.7179
11.0531
11.4399
11.8783
12.3745
12.9362
13.5738
14.2987
15.1245
16.0581
17.1251
18.3571
19.7858
21.4498
23.409
25.733
28.4675
31.6803
35.4898
39.9346
44.9414
50.4574
56.422
62.758
69.4032
76.3281
83.478
90.8491
98.456
106.351
114.662
123.571
133.559
145.016
158.34
174.531
195.244
218.544
226.219
203.492
113.433
35.7215
12.7786
7.3429
6.07615
5.77157
9.96853
9.96657
10.0138
10.1099
10.2405
10.3977
10.5757
10.7626
10.9689
11.1881
11.4221
11.6746
11.9485
12.2494
12.5937
12.9882
13.4324
13.938
14.5325
15.2444
16.1033
17.155
18.4603
20.1171
22.2119
24.7697
27.816
31.3629
35.4147
40.0001
45.1243
50.7873
57.0054
63.8257
71.3128
79.6181
88.9783
99.483
111.271
124.32
137.026
142.469
134.653
96.7383
41.3711
15.6889
8.2895
6.31207
5.80451
5.66655
9.98263
10.0068
10.0706
10.1563
10.2485
10.3367
10.4141
10.4791
10.5293
10.5685
10.5963
10.6228
10.6483
10.685
10.7443
10.8307
10.9476
11.1098
11.3315
11.6275
12.0212
12.5412
13.2165
14.0945
15.2398
16.6824
18.4338
20.5097
22.9314
25.7236
28.9075
32.5053
36.5423
41.0603
46.0974
51.6694
57.7789
64.3094
70.8404
75.9391
77.0921
72.8111
56.3269
31.4422
14.9409
8.49888
6.42311
5.79271
5.61034
5.5495
10.0762
10.2925
10.5354
10.7503
10.908
10.9973
11.0189
10.9842
10.9011
10.7782
10.6432
10.5074
10.348
10.1991
10.067
9.98474
9.92601
9.91476
9.95049
10.0677
10.284
10.6098
11.0632
11.6634
12.4411
13.4074
14.5522
15.869
17.3561
19.015
20.845
22.8438
25.0112
27.3313
29.7724
32.2408
34.5937
36.4534
37.2128
36.5856
33.1496
26.1482
17.772
11.1311
7.64451
6.2021
5.67475
5.48769
5.42188
5.39143
10.4973
11.4467
12.2368
12.8003
13.0869
13.136
13.0188
12.7508
12.3949
11.9963
11.5834
11.1742
10.777
10.3968
10.054
9.76355
9.5271
9.33375
9.19951
9.14679
9.16679
9.28637
9.55513
9.93688
10.4417
11.0657
11.7857
12.5746
13.4038
14.2514
15.096
15.9149
16.6833
17.357
17.8826
18.1716
18.1716
17.7577
16.5722
14.6906
12.2374
9.72461
7.68005
6.38758
5.71937
5.41272
5.27972
5.21752
5.18769
5.16786
13.9886
18.5437
20.5509
21.1155
20.7329
19.9473
18.8033
17.5041
16.2791
15.144
14.1022
13.1487
12.2643
11.3934
10.6539
10.1023
9.67048
9.18123
8.71535
8.38126
8.18805
8.14059
8.18852
8.31694
8.52081
8.79117
9.12761
9.53052
9.92546
10.2313
10.4437
10.5437
10.5359
10.4156
10.1559
9.75672
9.24786
8.62705
7.92992
7.21552
6.56157
5.99122
5.50681
5.25777
5.12732
5.06854
5.02464
4.99286
4.97124
4.95466
148.915
119.679
90.3809
70.711
56.9807
47.4241
38.836
32.9116
29.1021
25.9172
23.2118
20.873
18.8204
16.9976
15.3488
13.8383
12.4687
11.2746
10.272
9.47179
8.87848
8.48536
8.2716
8.20438
8.25772
8.40781
8.60994
8.82593
9.02749
9.18742
9.28068
9.28938
9.20365
9.02369
8.75492
8.42899
8.0806
7.73581
7.41571
7.13684
6.91328
6.743
6.61668
6.52373
6.45484
6.4021
6.36185
6.32927
6.30456
6.28158
)
;

boundaryField
{
    AXIS
    {
        type            empty;
    }
    OUTLET
    {
        type            zeroGradient;
    }
    COFLOW
    {
        type            fixedValue;
        value           uniform 10;
    }
    PILOT
    {
        type            fixedValue;
        value           uniform 10;
    }
    FUEL
    {
        type            fixedValue;
        value           uniform 50;
    }
    WALL
    {
        type            compressible::epsilonWallFunction;
        Cmu             0.09;
        kappa           0.41;
        E               9.8;
        value           nonuniform List<scalar> 
50
(
148.915
119.679
90.3809
70.711
56.9807
47.4241
38.836
32.9116
29.1021
25.9172
23.2118
20.873
18.8204
16.9976
15.3488
13.8383
12.4687
11.2746
10.272
9.47179
8.87848
8.48536
8.2716
8.20438
8.25772
8.40781
8.60994
8.82593
9.02749
9.18742
9.28068
9.28938
9.20365
9.02369
8.75492
8.42899
8.0806
7.73581
7.41571
7.13684
6.91328
6.743
6.61668
6.52373
6.45484
6.4021
6.36185
6.32927
6.30456
6.28158
)
;
    }
    front
    {
        type            wedge;
    }
    back
    {
        type            wedge;
    }
}


// ************************************************************************* //
