/*--------------------------------*- C++ -*----------------------------------*\
| =========                 |                                                 |
| \\      /  F ield         | OpenFOAM: The Open Source CFD Toolbox           |
|  \\    /   O peration     | Version:  2.4.x                                 |
|   \\  /    A nd           | Web:      www.OpenFOAM.org                      |
|    \\/     M anipulation  |                                                 |
\*---------------------------------------------------------------------------*/
FoamFile
{
    version     2.0;
    format      ascii;
    class       volScalarField;
    location    "0.08";
    object      k;
}
// * * * * * * * * * * * * * * * * * * * * * * * * * * * * * * * * * * * * * //

dimensions      [0 2 -2 0 0 0 0];

internalField   nonuniform List<scalar> 
1250
(
5.55697
5.94517
5.90671
5.98244
6.20644
6.53015
6.83356
7.09693
7.2184
7.28524
7.29687
7.26817
7.20784
7.08445
6.9474
6.76677
6.59926
6.41719
6.23373
6.04164
5.83804
5.63862
5.44692
5.26221
5.08407
4.90213
4.73043
4.56371
4.40662
4.25559
4.11381
3.97789
3.85493
3.73486
3.62631
3.52771
3.41872
3.33983
3.26102
3.15036
3.1227
3.20387
3.54747
4.7686
7.83822
7.51253
4.17084
1.15396
0.484741
0.360584
5.60989
5.94181
5.95979
6.11356
6.41236
6.77984
7.12199
7.35262
7.4641
7.50473
7.49777
7.45798
7.36786
7.23284
7.06916
6.88106
6.6966
6.50844
6.31112
6.10832
5.90192
5.69488
5.49708
5.31278
5.12967
4.94631
4.77014
4.60193
4.44139
4.2892
4.145
4.00771
3.8828
3.76183
3.65197
3.55206
3.44228
3.36256
3.28233
3.17057
3.14277
3.22321
3.56904
4.80516
7.83455
7.49838
4.15839
1.15114
0.484191
0.360425
5.61214
5.92249
6.14398
6.5386
7.03705
7.47835
7.80838
7.97647
8.03927
8.02395
7.97037
7.86701
7.72291
7.54292
7.33774
7.1185
6.90793
6.6958
6.47638
6.25478
6.03397
5.81504
5.60724
5.41587
5.2269
5.03776
4.85507
4.68122
4.51581
4.35935
4.21135
4.07075
3.94243
3.81859
3.7064
3.6035
3.49201
3.41055
3.32705
3.21381
3.18516
3.26566
3.61622
4.86838
7.82764
7.46062
4.11628
1.14084
0.482316
0.360005
5.4262
6.03666
6.80557
7.70544
8.43226
8.85271
9.07985
9.09531
9.02874
8.87708
8.70241
8.4982
8.2636
8.00889
7.73886
7.46927
7.21761
6.96826
6.71676
6.46837
6.22646
5.99033
5.76806
5.56343
5.36628
5.16987
4.9778
4.79606
4.62337
4.46082
4.30723
4.16197
4.02856
3.90033
3.78479
3.67761
3.56382
3.47981
3.39154
3.27721
3.24788
3.32934
3.68896
4.97208
7.81977
7.40137
4.04103
1.12173
0.47892
0.359307
5.58489
7.05714
9.1018
10.5543
11.1134
11.1586
11.0352
10.7334
10.3613
9.99689
9.65386
9.30444
8.94762
8.59091
8.23572
7.90184
7.59839
7.30238
7.01208
6.73154
6.4637
6.20639
5.96608
5.74527
5.5349
5.33031
5.12977
4.93767
4.75638
4.58618
4.42565
4.27466
4.13506
4.00142
3.88159
3.76924
3.65282
3.5656
3.47157
3.35683
3.32787
3.41179
3.78434
5.11385
7.80415
7.31878
3.93187
1.09385
0.474021
0.358337
9.01576
12.9044
14.988
14.9196
14.6064
13.9403
13.2149
12.4987
11.8179
11.2207
10.6833
10.1689
9.67384
9.2061
8.76584
8.36684
8.00803
7.6627
7.33155
7.0177
6.72255
6.44277
6.18306
5.94502
5.72036
5.50477
5.29648
5.0956
4.90456
4.7261
4.55818
4.40067
4.25448
4.11491
3.98994
3.87212
3.75316
3.66237
3.56224
3.44854
3.42167
3.50968
3.89884
5.28724
7.77683
7.21192
3.7898
1.058
0.467739
0.357112
7.1441
14.7127
17.12
17.0771
16.6586
15.7418
14.7719
13.8319
12.9667
12.2155
11.5334
10.8949
10.301
9.75445
9.24628
8.79313
8.38697
7.99954
7.63345
7.29112
6.97193
6.67221
6.39532
6.14208
5.9048
5.67816
5.46169
5.25422
5.05566
4.86905
4.69388
4.52994
4.37743
4.23253
4.10227
3.97891
3.85804
3.76367
3.65792
3.54763
3.52496
3.61805
4.02828
5.48102
7.73474
7.08076
3.61601
1.0153
0.460272
0.355659
3.15217
9.91582
14.3737
15.8911
16.0926
15.6886
15.009
14.1982
13.4002
12.6682
11.967
11.3004
10.6785
10.1028
9.57273
9.09945
8.6673
8.25588
7.86915
7.50964
7.17565
6.8642
6.5765
6.31317
6.0672
5.83231
5.60891
5.39681
5.19382
5.00153
4.82055
4.6513
4.49349
4.34447
4.21004
4.0819
3.95991
3.8625
3.75263
3.64903
3.63271
3.73391
4.16572
5.68428
7.67266
6.92516
3.4133
0.967383
0.451903
0.354016
2.21452
5.44701
9.27917
12.0137
13.4549
13.9239
13.8481
13.5094
12.9818
12.429
11.837
11.2483
10.6817
10.1476
9.6526
9.20818
8.78783
8.37768
7.99256
7.63434
7.30063
6.98924
6.70042
6.43471
6.18541
5.94687
5.72056
5.50629
5.30281
5.10892
4.92486
4.75268
4.59171
4.44061
4.30383
4.17315
4.05141
3.95155
3.84042
3.74745
3.73919
3.85151
4.30424
5.88553
7.58682
6.74555
3.18545
0.916194
0.442963
0.352226
2.01095
2.73909
4.67969
7.3069
9.43891
10.7625
11.4386
11.701
11.6535
11.4609
11.1129
10.7199
10.3005
9.87429
9.46911
9.09207
8.71109
8.33049
7.97134
7.63403
7.31775
7.02063
6.74248
6.48297
6.23712
6.00188
5.77874
5.56746
5.36699
5.17643
4.99432
4.82209
4.66125
4.51092
4.37441
4.24402
4.12483
4.02468
3.91575
3.83726
3.83761
3.96174
4.4408
6.07206
7.47151
6.54329
2.9382
0.86386
0.433789
0.350334
1.15439
1.52391
2.2355
3.64791
5.5095
7.17125
8.37599
9.17032
9.60376
9.78738
9.76422
9.65631
9.45173
9.20607
8.95221
8.68446
8.38355
8.07459
7.77539
7.48505
7.20455
6.93567
6.6798
6.43667
6.20391
5.98085
5.76835
5.56617
5.37405
5.19223
5.01683
4.84934
4.69309
4.54743
4.41465
4.28794
4.1743
4.07678
3.97493
3.91485
3.92441
4.06463
4.57534
6.23381
7.31515
6.30127
2.6798
0.810797
0.42441
0.348322
1.03999
1.16352
1.36324
1.78947
2.67304
3.91204
5.16994
6.23411
7.02092
7.56856
7.88897
8.06891
8.11803
8.0934
8.01872
7.88293
7.70777
7.51807
7.31644
7.10492
6.88927
6.6741
6.46191
6.25403
6.05123
5.85453
5.66434
5.48135
5.30567
5.13829
4.97534
4.81901
4.67311
4.53709
4.41257
4.29439
4.19051
4.1001
4.01233
3.97501
3.99853
4.16157
4.71739
6.35733
7.10256
5.98665
2.40124
0.754559
0.41429
0.346059
1.01174
1.04951
1.09486
1.19079
1.41723
1.86521
2.60167
3.47265
4.31109
5.03714
5.59894
6.0264
6.32318
6.51908
6.63637
6.67407
6.66111
6.61745
6.53528
6.42697
6.30214
6.16597
6.02038
5.87039
5.71845
5.56557
5.41308
5.26283
5.11597
4.97363
4.83329
4.69876
4.57286
4.45482
4.34635
4.24346
4.15476
4.07861
4.01385
4.00316
4.05185
4.24524
4.87255
6.4049
6.808
5.54936
2.1002
0.693585
0.40294
0.343432
1.00053
1.00446
1.00742
1.01779
1.05489
1.14922
1.34386
1.68791
2.18651
2.75501
3.3188
3.83707
4.27757
4.63476
4.91643
5.12124
5.26492
5.36368
5.41659
5.42672
5.41392
5.37827
5.31872
5.24621
5.16279
5.07064
4.97096
4.86715
4.76164
4.65543
4.54989
4.44944
4.35404
4.26385
4.18125
4.1036
4.03892
3.98973
3.96164
3.97531
4.0548
4.30605
5.02756
6.329
6.41133
4.96269
1.77208
0.627606
0.390327
0.340402
0.995199
0.985644
0.974318
0.962788
0.955689
0.960902
0.988359
1.05661
1.18398
1.39061
1.68649
2.03859
2.41121
2.7738
3.11081
3.40509
3.65404
3.8631
4.02922
4.1541
4.24761
4.31183
4.34854
4.36336
4.35851
4.34045
4.30512
4.25995
4.20817
4.15255
4.09558
4.04024
3.9862
3.93507
3.88888
3.84709
3.81691
3.80948
3.82233
3.87279
4.00436
4.3285
5.11523
6.08289
5.90681
4.17875
1.43372
0.559028
0.376762
0.336969
0.992647
0.977361
0.960693
0.942742
0.924628
0.90862
0.897374
0.89637
0.909163
0.943266
1.0084
1.1112
1.26377
1.45326
1.67287
1.90755
2.1428
2.37022
2.58089
2.76764
2.93025
3.06848
3.18251
3.27345
3.34148
3.39183
3.42521
3.44577
3.45659
3.46
3.45922
3.45709
3.45375
3.45206
3.45309
3.45872
3.47596
3.5156
3.58144
3.68723
3.88206
4.28052
5.04697
5.62215
5.2394
3.23291
1.09626
0.492069
0.362853
0.333153
0.991421
0.973692
0.954887
0.934874
0.913908
0.892642
0.872023
0.85357
0.838307
0.828216
0.827417
0.835668
0.857333
0.895982
0.957269
1.04211
1.14848
1.27492
1.41735
1.56791
1.7199
1.86707
2.0056
2.13197
2.24405
2.34291
2.4285
2.50299
2.56866
2.62756
2.68215
2.73439
2.78559
2.83788
2.89315
2.95376
3.02795
3.12418
3.24818
3.4159
3.67259
4.11374
4.7312
4.93512
4.34026
2.23775
0.803139
0.433334
0.349552
0.32895
0.990864
0.972092
0.952417
0.9317
0.90996
0.887386
0.864319
0.84125
0.818719
0.797565
0.778451
0.76136
0.747579
0.73838
0.736638
0.741722
0.755357
0.78054
0.821045
0.875357
0.942678
1.02173
1.11147
1.2086
1.30904
1.4101
1.50986
1.60777
1.70404
1.79933
1.89418
1.98928
2.08567
2.18474
2.28845
2.39942
2.52488
2.672
2.84536
3.0603
3.34965
3.75274
4.11024
4.0333
3.16986
1.37549
0.586849
0.387071
0.337471
0.324237
0.990617
0.971365
0.951263
0.930192
0.908111
0.88507
0.86121
0.836759
0.811984
0.78716
0.762529
0.738447
0.715267
0.693143
0.672814
0.654901
0.6399
0.62867
0.62348
0.625033
0.632653
0.649806
0.679403
0.72112
0.775475
0.841072
0.916217
0.999347
1.08942
1.1859
1.28802
1.39552
1.50852
1.62753
1.754
1.89014
2.04111
2.21091
2.40225
2.62349
2.88402
3.14997
3.22121
2.93448
1.86559
0.80805
0.45026
0.353225
0.326583
0.318661
0.990481
0.970876
0.950342
0.928778
0.906147
0.882486
0.857891
0.832513
0.806518
0.780088
0.753424
0.726727
0.700171
0.673981
0.648736
0.624544
0.601366
0.579706
0.56076
0.54554
0.535242
0.532377
0.535245
0.546181
0.57156
0.609473
0.65767
0.7154
0.782039
0.857374
0.941006
1.03251
1.13172
1.23896
1.35479
1.48066
1.61879
1.76936
1.93131
2.10049
2.25505
2.31215
2.19798
1.70346
0.922464
0.507248
0.371615
0.329047
0.31594
0.311377
0.990333
0.970176
0.948808
0.926162
0.902264
0.877216
0.851176
0.824329
0.796875
0.769011
0.740924
0.712784
0.684757
0.657072
0.629856
0.603198
0.577308
0.5528
0.530309
0.510664
0.495295
0.48583
0.483286
0.486017
0.49767
0.522926
0.556435
0.59723
0.644896
0.699104
0.759535
0.825932
0.898124
0.976182
1.0601
1.14953
1.24355
1.33941
1.43027
1.49597
1.50424
1.43179
1.18129
0.789517
0.501106
0.374501
0.327064
0.309706
0.303547
0.300819
0.990069
0.968709
0.945427
0.920287
0.893541
0.86551
0.83654
0.80696
0.777066
0.747114
0.717291
0.687728
0.658538
0.629825
0.601634
0.574057
0.54731
0.521776
0.498117
0.477211
0.460518
0.449338
0.444768
0.445562
0.452533
0.470546
0.495419
0.52493
0.558459
0.595382
0.635076
0.676941
0.720479
0.76496
0.809517
0.852196
0.890652
0.918275
0.926094
0.909687
0.842127
0.715228
0.558731
0.426271
0.349209
0.312405
0.296305
0.289218
0.286152
0.284261
0.989602
0.965148
0.93677
0.905366
0.872113
0.837789
0.803087
0.768598
0.734762
0.701801
0.669774
0.63868
0.608483
0.579141
0.550654
0.523037
0.496399
0.470963
0.447368
0.426526
0.409696
0.398108
0.392659
0.392546
0.396749
0.409146
0.426536
0.446247
0.467446
0.489249
0.510746
0.531073
0.549407
0.564593
0.575391
0.580105
0.578558
0.566898
0.539178
0.497055
0.441865
0.384531
0.335216
0.301005
0.280742
0.269631
0.263769
0.260405
0.25857
0.256995
0.988761
0.953016
0.905474
0.8544
0.806755
0.759447
0.714341
0.672597
0.63437
0.59908
0.566239
0.535422
0.506278
0.478607
0.452206
0.426759
0.402128
0.378812
0.357549
0.339133
0.324487
0.314489
0.309595
0.308947
0.310977
0.317992
0.328018
0.338627
0.349228
0.358999
0.366988
0.372442
0.374812
0.374189
0.369084
0.358057
0.343746
0.325934
0.305528
0.284145
0.264346
0.247911
0.2355
0.226812
0.221026
0.217118
0.214509
0.212531
0.211285
0.209904
0.975755
0.843453
0.699467
0.593892
0.514281
0.455039
0.398295
0.356683
0.3286
0.304167
0.282615
0.2633
0.245746
0.229614
0.214518
0.200206
0.186768
0.174642
0.164122
0.155473
0.148897
0.144454
0.142004
0.141222
0.141823
0.143531
0.145821
0.148251
0.150504
0.152283
0.15332
0.153426
0.152492
0.150509
0.147515
0.143837
0.13985
0.135843
0.132067
0.128729
0.12602
0.123936
0.122378
0.121226
0.120368
0.119709
0.119205
0.118797
0.118487
0.118198
)
;

boundaryField
{
    AXIS
    {
        type            empty;
    }
    OUTLET
    {
        type            zeroGradient;
    }
    COFLOW
    {
        type            fixedValue;
        value           uniform 1;
    }
    PILOT
    {
        type            fixedValue;
        value           uniform 1;
    }
    FUEL
    {
        type            fixedValue;
        value           uniform 5;
    }
    WALL
    {
        type            compressible::kqRWallFunction;
        value           nonuniform List<scalar> 
50
(
0.975755
0.843453
0.699467
0.593892
0.514281
0.455039
0.398295
0.356683
0.3286
0.304167
0.282615
0.2633
0.245746
0.229614
0.214518
0.200206
0.186768
0.174642
0.164122
0.155473
0.148897
0.144454
0.142004
0.141222
0.141823
0.143531
0.145821
0.148251
0.150504
0.152283
0.15332
0.153426
0.152492
0.150509
0.147515
0.143837
0.13985
0.135843
0.132067
0.128729
0.12602
0.123936
0.122378
0.121226
0.120368
0.119709
0.119205
0.118797
0.118487
0.118198
)
;
    }
    front
    {
        type            wedge;
    }
    back
    {
        type            wedge;
    }
}


// ************************************************************************* //
