/*--------------------------------*- C++ -*----------------------------------*\
| =========                 |                                                 |
| \\      /  F ield         | OpenFOAM: The Open Source CFD Toolbox           |
|  \\    /   O peration     | Version:  2.4.x                                 |
|   \\  /    A nd           | Web:      www.OpenFOAM.org                      |
|    \\/     M anipulation  |                                                 |
\*---------------------------------------------------------------------------*/
FoamFile
{
    version     2.0;
    format      ascii;
    class       volScalarField;
    location    "0.08";
    object      mut;
}
// * * * * * * * * * * * * * * * * * * * * * * * * * * * * * * * * * * * * * //

dimensions      [1 -1 -1 0 0 0 0];

internalField   nonuniform List<scalar> 
1250
(
0.0365543
0.0208666
0.0128068
0.00837514
0.00598264
0.00466738
0.00384787
0.00328627
0.0028567
0.00250587
0.00222142
0.00201121
0.00182738
0.00166988
0.0015336
0.00140724
0.00130884
0.00122546
0.00115133
0.00108394
0.00102258
0.000966918
0.000917327
0.000876567
0.000836754
0.000798445
0.000764207
0.000733547
0.000706053
0.000681634
0.000659844
0.000640222
0.000624346
0.000609853
0.000598394
0.000589715
0.000576938
0.000575306
0.000568972
0.000553385
0.000574446
0.000600625
0.000661814
0.000886875
0.00139833
0.00176984
0.00178609
0.00119341
0.00125749
0.00173048
0.0351342
0.0190104
0.011333
0.00736747
0.00534154
0.00424554
0.00356368
0.00308486
0.00269084
0.00238123
0.00213078
0.00193932
0.00177089
0.001625
0.00149348
0.00137939
0.00128564
0.00120643
0.00113507
0.00107033
0.0010113
0.0009574
0.000909421
0.00087026
0.000833024
0.000795551
0.000761915
0.000731806
0.000704759
0.000680748
0.000659265
0.000639935
0.000624138
0.00060988
0.000598623
0.00059004
0.000577504
0.00057602
0.000569673
0.000554334
0.000575632
0.000602049
0.000663971
0.000893726
0.00140012
0.00177271
0.00178502
0.001193
0.00125855
0.00173141
0.0312988
0.0148328
0.00838107
0.00555213
0.00424873
0.00353266
0.00306506
0.00268634
0.00239325
0.00215624
0.00196168
0.00180184
0.00165944
0.00153196
0.00142041
0.0013211
0.00123836
0.00116705
0.00110192
0.00104233
0.000987775
0.000937788
0.000893093
0.000856864
0.000823969
0.000789317
0.000757009
0.000727943
0.00070192
0.000678678
0.000657916
0.000639239
0.000623671
0.00060986
0.000599102
0.000590717
0.000578687
0.000577517
0.000571098
0.000556306
0.000578338
0.000605315
0.000668912
0.000907155
0.00140512
0.00177937
0.00178079
0.00119169
0.00126225
0.00173424
0.0229894
0.00902186
0.00511543
0.00380032
0.00321908
0.00280493
0.00252335
0.00227106
0.00207993
0.00190788
0.00176036
0.00163717
0.00152547
0.00142281
0.00132976
0.00124658
0.00117699
0.00111523
0.00105779
0.00100479
0.00095619
0.000911332
0.000871157
0.000838321
0.000808934
0.000780715
0.000750112
0.000722671
0.000697884
0.000675772
0.000656038
0.000638322
0.000623342
0.000609804
0.000599742
0.000591616
0.000580398
0.000579667
0.000573134
0.000559474
0.000582545
0.00061057
0.000676838
0.000928396
0.00141339
0.00179
0.00177293
0.00118917
0.00126924
0.0017393
0.010166
0.00385087
0.00306867
0.00273281
0.00250011
0.00227508
0.00212285
0.00194957
0.00180622
0.00168166
0.0015768
0.0014818
0.00139415
0.00131274
0.00123658
0.00116737
0.0011104
0.00105772
0.00100849
0.000962639
0.000920453
0.00088132
0.000845872
0.000816706
0.000790729
0.000766266
0.000741865
0.000716092
0.000692894
0.000672231
0.000653671
0.000637023
0.000622915
0.000609666
0.000600384
0.000592663
0.000582511
0.000582327
0.000575634
0.000563741
0.000588263
0.000617627
0.000687559
0.00095679
0.00142404
0.00180375
0.00176089
0.00118543
0.00127973
0.00174659
0.00220893
0.00227099
0.00228075
0.0021674
0.00206345
0.00191487
0.00179778
0.00168129
0.00157755
0.00148941
0.00141596
0.00134535
0.00127815
0.00121088
0.00114786
0.00109111
0.00104448
0.00100029
0.000958531
0.000919499
0.000883516
0.000849927
0.000819235
0.000793551
0.000771007
0.000749665
0.000729309
0.000708557
0.000687068
0.00066789
0.000650763
0.000635495
0.000622357
0.00060999
0.000600923
0.000593703
0.000584872
0.000585263
0.000578521
0.00056914
0.00059553
0.000626512
0.000700924
0.0009918
0.00143649
0.00181965
0.0017444
0.00118073
0.00129393
0.00175594
0.000828585
0.00149003
0.00174352
0.00177274
0.00175463
0.00164057
0.0015588
0.00147464
0.00139495
0.00132883
0.00127133
0.00121606
0.0011638
0.00111442
0.00106706
0.0010209
0.00098221
0.000945193
0.000910119
0.000877296
0.00084705
0.000818536
0.000792107
0.00076974
0.000750479
0.000732138
0.000714695
0.00069794
0.00068031
0.000662908
0.000647258
0.000633338
0.000621336
0.000610162
0.000601895
0.000594679
0.00058734
0.000588445
0.000581792
0.000575824
0.000604294
0.000636779
0.000717377
0.00103121
0.00145277
0.00183756
0.00172239
0.00117544
0.00131198
0.0017671
0.000338012
0.00103363
0.00133206
0.00143741
0.00146014
0.00140663
0.00135285
0.00129248
0.0012341
0.00118719
0.00114384
0.00110192
0.00106178
0.00102374
0.000988107
0.000956663
0.00092471
0.000893892
0.000864629
0.000837243
0.000811631
0.000787564
0.000765191
0.000745742
0.00072946
0.00071396
0.000699209
0.000685229
0.000671629
0.000656843
0.000642879
0.000630498
0.000619763
0.000609904
0.000602752
0.000596134
0.000589793
0.000591607
0.000585394
0.000583776
0.000614345
0.000648755
0.00073694
0.00107261
0.00147296
0.00185691
0.00169454
0.00117016
0.00133387
0.00177965
0.000341762
0.000753096
0.000996328
0.00111939
0.00118017
0.00118455
0.00115788
0.00112921
0.00109103
0.00106148
0.00102951
0.000998091
0.000967664
0.00093922
0.000913041
0.000890797
0.000868707
0.000843521
0.000819643
0.000797293
0.00077638
0.000756681
0.000738213
0.000721755
0.000708255
0.00069534
0.000683101
0.000671572
0.000660483
0.000649678
0.000637384
0.000626621
0.000617323
0.000608975
0.000603149
0.000597593
0.000593128
0.000595104
0.000589523
0.000593201
0.000625519
0.000662881
0.000758727
0.00111613
0.00149626
0.00187668
0.00166031
0.00116567
0.00135944
0.00179308
0.000647005
0.000682148
0.000765613
0.000857561
0.000929795
0.0009631
0.000968028
0.000963998
0.000943263
0.000928485
0.000906621
0.000887693
0.000868079
0.00084872
0.000831711
0.000820484
0.000807637
0.000789652
0.000771759
0.000754849
0.000739104
0.000724276
0.000710399
0.000697645
0.000686648
0.0006762
0.000666314
0.000657043
0.00064826
0.000639843
0.000630707
0.00062161
0.000613896
0.000607246
0.000602787
0.000598603
0.00059625
0.000599116
0.000595277
0.000604808
0.000638186
0.00067867
0.000784003
0.00116245
0.0015214
0.00189583
0.00161996
0.00116291
0.00138829
0.0018068
0.0028533
0.00112654
0.000736185
0.00068522
0.000725632
0.000769071
0.000794778
0.000809578
0.000813414
0.000815512
0.000799135
0.000790657
0.000778053
0.000765546
0.000755794
0.000751091
0.000744251
0.000733832
0.000723241
0.000712626
0.000702109
0.000691842
0.00068198
0.00067263
0.000664086
0.000656072
0.000648518
0.000641388
0.000634718
0.000628538
0.000622243
0.000615056
0.000609189
0.000604386
0.000601681
0.000599137
0.000599128
0.00060324
0.000602342
0.000618658
0.00065203
0.000696129
0.000814731
0.00121112
0.00154709
0.00190914
0.00157957
0.00116263
0.0014208
0.00182068
0.00580827
0.00234462
0.00113328
0.000713595
0.000618328
0.000617452
0.000638781
0.000666212
0.000682279
0.000695686
0.000699543
0.000704588
0.000701198
0.000698758
0.000698886
0.00069367
0.000686382
0.000680114
0.000674401
0.000668272
0.000662034
0.000655806
0.000649591
0.00064354
0.000637925
0.000632752
0.000627828
0.000623204
0.000618945
0.000615091
0.000611174
0.000606435
0.000602774
0.000600219
0.000599517
0.000599168
0.00060201
0.000607828
0.000611374
0.000634948
0.000668469
0.000717179
0.000857826
0.00126226
0.00157195
0.00191517
0.00153407
0.00116731
0.00145944
0.00183534
0.00777174
0.00411562
0.00219609
0.00122427
0.000772725
0.000595818
0.000546238
0.000547052
0.000561937
0.000581227
0.000594554
0.000606021
0.000612955
0.000618287
0.000624459
0.000624136
0.000624974
0.000626419
0.000625001
0.000622458
0.000619799
0.000617073
0.000613738
0.00061032
0.00060764
0.000605419
0.000603263
0.000601288
0.000599567
0.000598193
0.000596795
0.000594849
0.00059395
0.000594258
0.000596119
0.000598717
0.000604695
0.000613369
0.000623302
0.000653842
0.000689799
0.000747234
0.000921783
0.00130896
0.00159749
0.001908
0.00148156
0.00118277
0.00150719
0.00185118
0.00888396
0.0058702
0.00373624
0.00235679
0.00147601
0.000952772
0.000673318
0.000549785
0.000505204
0.000495857
0.00050112
0.000512375
0.000523592
0.000534027
0.000544096
0.000550544
0.000556348
0.000562818
0.000565574
0.000566904
0.000569391
0.000571337
0.000571489
0.000571584
0.00057233
0.000573496
0.000574355
0.000575195
0.000576221
0.000577528
0.000578428
0.000579975
0.00058249
0.000586205
0.000591531
0.000597986
0.00060812
0.000621551
0.000640708
0.000674384
0.000713849
0.00079253
0.00100976
0.00134935
0.00162463
0.00188295
0.00141685
0.00121063
0.001566
0.00186762
0.00952193
0.00728497
0.00536661
0.00385788
0.00272397
0.001891
0.00129978
0.000910908
0.000677082
0.000549979
0.000492297
0.000469921
0.000466054
0.000468746
0.000476112
0.000483999
0.000491753
0.000500148
0.000506568
0.000510973
0.000516456
0.000521137
0.000524163
0.000527798
0.000532097
0.000537005
0.00054056
0.000544313
0.0005478
0.000551761
0.000556399
0.000561997
0.000568618
0.000576611
0.000586415
0.000597907
0.00061324
0.000634739
0.000662355
0.000699602
0.000751847
0.000859739
0.00110193
0.00138869
0.00165645
0.00182112
0.00135332
0.00126108
0.00163589
0.0018831
0.00990333
0.00831921
0.00677829
0.00540037
0.00421621
0.00322617
0.00243154
0.00180323
0.00132902
0.00098721
0.000755712
0.000608951
0.00052688
0.000479665
0.000456135
0.000446699
0.000444903
0.000447766
0.000452863
0.000458362
0.000464615
0.000470966
0.000476997
0.000483036
0.000489711
0.000495824
0.000501472
0.000508219
0.000515643
0.000523631
0.000532696
0.00054302
0.00055462
0.000568134
0.000583707
0.00060168
0.000623893
0.000653682
0.000691301
0.000737226
0.00081111
0.000947336
0.00118513
0.0014304
0.00168574
0.00171249
0.00129302
0.00134473
0.00171208
0.00189485
0.0101385
0.00903469
0.00786698
0.00672467
0.00565428
0.00467915
0.00380834
0.0030548
0.00242274
0.001896
0.00147998
0.00115765
0.00091466
0.000739057
0.000619769
0.000540603
0.000488541
0.000456295
0.000438422
0.0004298
0.000427489
0.000428874
0.000432689
0.000438353
0.000445698
0.000454358
0.000463661
0.000474086
0.000485623
0.000498561
0.000512969
0.000528719
0.000546564
0.000566772
0.000589738
0.00061597
0.000647078
0.000687058
0.000737257
0.000800666
0.000892327
0.00104419
0.00125062
0.00146958
0.00169568
0.00156082
0.00126488
0.00146956
0.00178375
0.00189876
0.0102848
0.00950694
0.00863786
0.00773529
0.00683568
0.00596587
0.00514383
0.00438149
0.00368638
0.0030707
0.00254523
0.00208922
0.00170294
0.00138556
0.00113515
0.000934023
0.000776844
0.000658762
0.000575302
0.000515867
0.00047498
0.000448708
0.000434165
0.00042869
0.000430059
0.00043624
0.000445889
0.000458358
0.000473339
0.000490885
0.000510856
0.000533019
0.000557722
0.000585166
0.000615988
0.000651055
0.000692068
0.000741936
0.000803179
0.000880133
0.000983424
0.00112782
0.00130218
0.00150218
0.00165074
0.00139856
0.00131905
0.0016168
0.00183324
0.00189034
0.0103738
0.00979265
0.00913067
0.00841675
0.0076768
0.00693281
0.0062025
0.00549978
0.00483667
0.00421901
0.0036489
0.00312999
0.00267342
0.00227209
0.0019202
0.00161573
0.00135792
0.00114403
0.00096961
0.000829217
0.000715303
0.000629836
0.000570223
0.000530718
0.000509381
0.00050124
0.000502701
0.000510961
0.000524482
0.000542579
0.000564341
0.000589245
0.000617375
0.000648602
0.000683625
0.00072322
0.000769421
0.000824292
0.000890954
0.000972445
0.00107209
0.001197
0.00134142
0.00150718
0.00150328
0.00132397
0.00147964
0.00173967
0.00184661
0.00186469
0.0104168
0.00992793
0.00937687
0.00877327
0.00814084
0.00749651
0.00685508
0.00623324
0.00563009
0.00505503
0.00451164
0.00400215
0.00352809
0.00309039
0.00269015
0.00233998
0.00202698
0.00174677
0.00150152
0.00129145
0.00111728
0.000980698
0.000867347
0.000777993
0.00072381
0.000693434
0.000677395
0.000671831
0.000674116
0.000683087
0.000697362
0.0007163
0.000739046
0.000765983
0.000797118
0.000833749
0.000876774
0.000928337
0.000990641
0.0010619
0.00114547
0.0012429
0.00136521
0.00143775
0.00135458
0.00142238
0.00165656
0.00178704
0.00181708
0.00181522
0.0104102
0.00990897
0.00935353
0.00876807
0.00817279
0.007582
0.00700519
0.00644723
0.00591281
0.00540216
0.00491771
0.00445647
0.00402048
0.00360785
0.00322163
0.00285876
0.00252009
0.00220801
0.00193086
0.00168588
0.00147555
0.00130411
0.00116945
0.00105489
0.000970057
0.000926696
0.000900056
0.000884439
0.000877069
0.000876019
0.000879861
0.000887785
0.00089957
0.000915045
0.000935474
0.000962157
0.000994636
0.00103521
0.00108245
0.00113388
0.00119725
0.00127818
0.00133118
0.0013378
0.00142006
0.0016063
0.00171793
0.00174331
0.00174022
0.00173107
0.0103171
0.00963256
0.00892283
0.0082411
0.00760887
0.00703035
0.00650164
0.00601408
0.00556287
0.0051434
0.00474287
0.00435763
0.00399962
0.00365712
0.00332681
0.00300029
0.0026902
0.0023948
0.00212147
0.00187217
0.00165586
0.00147963
0.00134154
0.00122743
0.00113717
0.00109109
0.00106579
0.0010504
0.00104248
0.00103982
0.00104081
0.00104444
0.00105033
0.00105848
0.00106927
0.00108419
0.00110633
0.00112893
0.00115858
0.00120243
0.00123983
0.00127791
0.00133073
0.00143671
0.00155806
0.00161845
0.00162538
0.0016136
0.00160264
0.00159163
0.00990107
0.00861725
0.00757217
0.00673793
0.00608955
0.00557134
0.00513659
0.00477345
0.00445612
0.00416765
0.00389884
0.00364276
0.00339581
0.00315613
0.00291791
0.00267803
0.0024388
0.00220743
0.00198851
0.00178438
0.00160745
0.00146101
0.00134234
0.00124977
0.00117555
0.00114019
0.00112483
0.0011169
0.00111516
0.00111772
0.00112284
0.00112923
0.0011364
0.00114432
0.00115264
0.00115925
0.00117375
0.00119111
0.00121149
0.00123758
0.00126768
0.00132498
0.00138376
0.00142141
0.00142724
0.00141299
0.00139511
0.00137911
0.00136857
0.00135745
0.00742158
0.00519575
0.00422554
0.00365419
0.00330975
0.00303929
0.00284277
0.00269672
0.00256818
0.00245026
0.00233837
0.00222964
0.00212418
0.00202994
0.00192417
0.00179395
0.00165067
0.00152899
0.00142021
0.00131262
0.00121257
0.00112656
0.00106474
0.001022
0.000987974
0.000978035
0.000979566
0.000978445
0.000980254
0.000989703
0.00100199
0.00101585
0.00102824
0.00103992
0.00104956
0.00104845
0.00104964
0.00105011
0.00104929
0.00104381
0.00103644
0.0010336
0.00104004
0.00102563
0.0010065
0.000985894
0.000972073
0.00096076
0.000953808
0.000944572
0.000679136
0.000631269
0.000574604
0.000529096
0.00049189
0.000462133
0.000431731
0.000407856
0.000390695
0.000375049
0.000360627
0.00034717
0.000334473
0.00032235
0.000310587
0.000299029
0.000287735
0.000277048
0.000267244
0.000258602
0.000251376
0.000245706
0.000241562
0.000238745
0.000237074
0.000236387
0.000236366
0.000236755
0.000237415
0.000238233
0.000239106
0.000239953
0.000240699
0.000241285
0.000241653
0.000241834
0.000241869
0.000241752
0.000241504
0.000241058
0.000240541
0.000239974
0.000239369
0.000238807
0.000238266
0.000237712
0.000237239
0.000236843
0.000236536
0.000236246
)
;

boundaryField
{
    AXIS
    {
        type            empty;
    }
    OUTLET
    {
        type            calculated;
        value           nonuniform List<scalar> 
25
(
0.00173048
0.00173141
0.00173424
0.0017393
0.00174658
0.00175594
0.0017671
0.00177965
0.00179308
0.0018068
0.00182068
0.00183534
0.00185118
0.00186762
0.0018831
0.00189485
0.00189876
0.00189034
0.00186469
0.00181522
0.00173107
0.00159163
0.00135745
0.000944572
0.000236246
)
;
    }
    COFLOW
    {
        type            calculated;
        value           nonuniform List<scalar> 
15
(
0.0106225
0.0106225
0.0106224
0.0106224
0.0106223
0.0106223
0.0106223
0.0106223
0.0106223
0.0106223
0.0106223
0.0106223
0.0106223
0.0106223
0.0106223
)
;
    }
    PILOT
    {
        type            calculated;
        value           nonuniform List<scalar> 5(0.00141094 0.00141097 0.00141109 0.00141113 0.00141117);
    }
    FUEL
    {
        type            calculated;
        value           nonuniform List<scalar> 5(0.0472856 0.0472842 0.04729 0.0473069 0.0473174);
    }
    WALL
    {
        type            mutkWallFunction;
        Cmu             0.09;
        kappa           0.41;
        E               9.8;
        value           nonuniform List<scalar> 
50
(
8.17817e-05
7.57478e-05
6.85302e-05
6.26677e-05
5.78249e-05
5.39151e-05
4.98851e-05
4.66895e-05
4.43718e-05
4.22429e-05
4.02661e-05
3.84084e-05
3.66438e-05
3.49465e-05
3.32879e-05
3.16466e-05
3.00306e-05
2.84873e-05
2.70551e-05
2.57742e-05
2.46813e-05
2.37983e-05
2.3123e-05
2.26307e-05
2.23001e-05
2.21121e-05
2.20272e-05
2.20142e-05
2.20588e-05
2.21495e-05
2.22755e-05
2.24273e-05
2.25946e-05
2.27669e-05
2.29333e-05
2.30911e-05
2.32358e-05
2.33566e-05
2.3449e-05
2.34925e-05
2.35025e-05
2.34808e-05
2.34323e-05
2.3376e-05
2.33119e-05
2.32374e-05
2.31713e-05
2.31154e-05
2.30717e-05
2.30304e-05
)
;
    }
    front
    {
        type            wedge;
    }
    back
    {
        type            wedge;
    }
}


// ************************************************************************* //
