/*--------------------------------*- C++ -*----------------------------------*\
| =========                 |                                                 |
| \\      /  F ield         | OpenFOAM: The Open Source CFD Toolbox           |
|  \\    /   O peration     | Version:  2.4.x                                 |
|   \\  /    A nd           | Web:      www.OpenFOAM.org                      |
|    \\/     M anipulation  |                                                 |
\*---------------------------------------------------------------------------*/
FoamFile
{
    version     2.0;
    format      ascii;
    class       volScalarField;
    location    "0.08";
    object      rho;
}
// * * * * * * * * * * * * * * * * * * * * * * * * * * * * * * * * * * * * * //

dimensions      [1 -3 0 0 0 0 0];

internalField   nonuniform List<scalar> 
1250
(
1.00245
0.892586
0.800579
0.729038
0.670852
0.623113
0.58311
0.549023
0.518222
0.48595
0.457301
0.432395
0.409561
0.388684
0.369882
0.352442
0.337033
0.323683
0.311361
0.299855
0.289101
0.278999
0.269556
0.261602
0.253417
0.24538
0.237928
0.231096
0.224751
0.218932
0.213543
0.208568
0.204095
0.20018
0.196534
0.193219
0.190165
0.187252
0.184727
0.182142
0.179896
0.178504
0.176914
0.177719
0.194128
0.262488
0.434101
0.774552
1.0629
1.15704
0.994978
0.875839
0.783906
0.713651
0.657459
0.611935
0.574087
0.541893
0.508356
0.477128
0.449578
0.425591
0.403479
0.38344
0.365187
0.348246
0.333365
0.320433
0.308412
0.2972
0.286676
0.276799
0.267571
0.259799
0.252208
0.244272
0.236949
0.230198
0.223957
0.218213
0.212896
0.207984
0.203535
0.199672
0.196077
0.19281
0.189795
0.18693
0.184437
0.181892
0.179675
0.17831
0.176765
0.177816
0.194422
0.263155
0.434963
0.775584
1.06337
1.15714
0.972384
0.832012
0.742266
0.676876
0.626963
0.588162
0.553251
0.518186
0.486511
0.458019
0.432871
0.410841
0.390613
0.372158
0.355026
0.33926
0.325528
0.313417
0.302094
0.291467
0.281464
0.272093
0.263322
0.255966
0.249254
0.241873
0.2348
0.228234
0.222207
0.216619
0.211464
0.206702
0.202315
0.198566
0.195095
0.191933
0.188997
0.186228
0.183804
0.181336
0.179186
0.177872
0.17644
0.178028
0.195127
0.264834
0.437347
0.778649
1.06473
1.15741
0.909753
0.747285
0.669457
0.620761
0.581759
0.544214
0.511258
0.481961
0.455059
0.4305
0.409014
0.390023
0.372308
0.355838
0.340591
0.326513
0.314325
0.30335
0.292965
0.283178
0.273992
0.26535
0.257296
0.250496
0.244301
0.238417
0.231649
0.225414
0.219641
0.214297
0.209384
0.204847
0.200642
0.196953
0.193653
0.190632
0.18783
0.185197
0.182883
0.180523
0.178513
0.177243
0.175994
0.178432
0.196343
0.267612
0.441545
0.784018
1.06706
1.15787
0.725233
0.59848
0.570113
0.537715
0.510091
0.485488
0.461847
0.439315
0.417949
0.397972
0.380877
0.365113
0.350357
0.336568
0.323503
0.31112
0.3007
0.290961
0.281776
0.273073
0.264893
0.257188
0.249941
0.243795
0.238203
0.232939
0.227684
0.221804
0.216384
0.211383
0.206758
0.202468
0.198534
0.19491
0.191811
0.188984
0.186355
0.183897
0.181717
0.179509
0.177665
0.176469
0.175487
0.179035
0.198051
0.271437
0.447649
0.791686
1.07031
1.15851
0.336988
0.428852
0.448429
0.444468
0.43324
0.419827
0.405006
0.389524
0.374864
0.361333
0.349841
0.338477
0.32747
0.315897
0.30482
0.294389
0.285675
0.277373
0.269457
0.261928
0.254849
0.248144
0.2418
0.236308
0.231391
0.226686
0.222228
0.21761
0.212596
0.207952
0.20369
0.199753
0.196109
0.192734
0.189677
0.187068
0.18465
0.182383
0.180381
0.178359
0.176722
0.175651
0.174991
0.179867
0.200268
0.276248
0.455795
0.801565
1.07439
1.15929
0.218182
0.318429
0.36044
0.372443
0.372687
0.365952
0.356915
0.346846
0.336398
0.327052
0.318661
0.310252
0.30204
0.294039
0.286157
0.277698
0.270456
0.26351
0.256856
0.250501
0.244535
0.238809
0.2333
0.228458
0.224212
0.220124
0.216211
0.21247
0.20843
0.20424
0.20036
0.196767
0.19345
0.190388
0.187563
0.185018
0.182818
0.180795
0.17898
0.177184
0.17577
0.174894
0.174718
0.181013
0.203178
0.282098
0.465964
0.813486
1.07918
1.1602
0.188036
0.27962
0.320437
0.331151
0.33284
0.32751
0.320354
0.312611
0.304677
0.298099
0.291907
0.285691
0.279507
0.273509
0.267668
0.262258
0.256304
0.250551
0.245
0.239678
0.234574
0.229676
0.224968
0.220683
0.21704
0.213555
0.210198
0.206988
0.203897
0.200357
0.196908
0.193707
0.190742
0.187994
0.185468
0.183147
0.180987
0.179212
0.177599
0.17605
0.174894
0.174248
0.174935
0.182529
0.206752
0.288985
0.478282
0.827176
1.08449
1.1612
0.193293
0.28721
0.320208
0.319044
0.311944
0.304905
0.296414
0.288669
0.281553
0.276067
0.270878
0.265843
0.260928
0.256195
0.251579
0.247448
0.243376
0.238583
0.233933
0.229467
0.225204
0.221093
0.217116
0.213394
0.210312
0.207356
0.204509
0.201783
0.199149
0.196582
0.193519
0.190706
0.188105
0.185691
0.183489
0.181458
0.179574
0.177895
0.176381
0.175101
0.174233
0.173959
0.175539
0.184463
0.211073
0.296866
0.492755
0.842275
1.09014
1.16225
0.26487
0.368584
0.374481
0.338645
0.314665
0.297873
0.285537
0.275328
0.26684
0.259594
0.253491
0.248161
0.243354
0.239067
0.235194
0.232728
0.230281
0.22676
0.223135
0.219639
0.216281
0.213035
0.209926
0.206946
0.204333
0.201832
0.199412
0.197098
0.194882
0.192743
0.190412
0.18797
0.185723
0.183648
0.181732
0.179998
0.178403
0.176996
0.175707
0.174648
0.174115
0.174295
0.176635
0.186844
0.216321
0.305724
0.509219
0.858321
1.09592
1.16331
0.762917
0.594352
0.500694
0.407384
0.347101
0.312239
0.289759
0.273756
0.2631
0.254254
0.246057
0.239134
0.233434
0.228468
0.224255
0.221988
0.219879
0.217071
0.214263
0.211544
0.208915
0.20635
0.203873
0.201475
0.199236
0.197102
0.195061
0.193114
0.191238
0.189438
0.187672
0.185588
0.18369
0.181923
0.180343
0.178888
0.177579
0.176467
0.17546
0.174732
0.174494
0.175098
0.178363
0.189844
0.222641
0.315824
0.528346
0.87534
1.1018
1.16438
1.02433
0.825112
0.690285
0.550304
0.436975
0.363585
0.318078
0.290842
0.27184
0.258124
0.2483
0.240194
0.233672
0.228207
0.22378
0.219538
0.215416
0.211889
0.208969
0.206294
0.203819
0.201472
0.199253
0.197149
0.195183
0.193338
0.191582
0.189911
0.18834
0.186851
0.185433
0.183741
0.182184
0.180746
0.179475
0.178306
0.177321
0.176484
0.175775
0.17542
0.175522
0.176666
0.181046
0.193993
0.230441
0.328274
0.551801
0.895543
1.1082
1.16554
1.11324
0.976988
0.862709
0.735343
0.601746
0.485671
0.399038
0.341937
0.30532
0.281049
0.26385
0.250508
0.240461
0.23258
0.226194
0.220801
0.216199
0.212191
0.208624
0.205384
0.202447
0.199761
0.19726
0.194932
0.19297
0.191248
0.189646
0.188156
0.186775
0.1855
0.184302
0.182891
0.181632
0.180515
0.179524
0.178684
0.177982
0.177454
0.17708
0.177114
0.177599
0.179408
0.185164
0.199925
0.241011
0.344852
0.58253
0.922336
1.11553
1.1669
1.14454
1.06084
0.974732
0.883832
0.778871
0.667463
0.559099
0.465434
0.3942
0.342351
0.306818
0.281676
0.263459
0.249977
0.23932
0.230736
0.223855
0.218005
0.213065
0.208767
0.205027
0.201705
0.198723
0.196046
0.193882
0.192032
0.190374
0.188879
0.187537
0.186347
0.185061
0.183882
0.182871
0.181995
0.181268
0.180688
0.180265
0.180004
0.180022
0.180413
0.181371
0.184027
0.191363
0.208797
0.255767
0.367877
0.623654
0.954382
1.12394
1.16847
1.15799
1.10424
1.04511
0.978416
0.906191
0.825678
0.738876
0.648041
0.559087
0.47927
0.41339
0.363272
0.326546
0.298566
0.277543
0.261405
0.248731
0.238487
0.229929
0.222583
0.216552
0.211408
0.206992
0.203282
0.200399
0.197893
0.19572
0.193852
0.192058
0.1905
0.189168
0.188054
0.187142
0.186382
0.185836
0.185434
0.185197
0.185205
0.185553
0.186288
0.187833
0.191622
0.200742
0.222199
0.276543
0.401571
0.678976
0.991672
1.1333
1.17027
1.16506
1.12863
1.08748
1.04132
0.989126
0.930494
0.870631
0.803142
0.732581
0.659342
0.587265
0.519354
0.458043
0.40614
0.364245
0.331368
0.30561
0.285123
0.268816
0.25561
0.244779
0.235736
0.228262
0.22209
0.216931
0.212482
0.208763
0.20564
0.203112
0.200978
0.199229
0.197813
0.196672
0.195761
0.195124
0.194642
0.194407
0.1945
0.195058
0.196139
0.19844
0.203701
0.215072
0.241605
0.306446
0.452822
0.750931
1.03239
1.14324
1.17222
1.16938
1.14369
1.11439
1.08151
1.04475
1.00366
0.957747
0.908622
0.858763
0.804113
0.748016
0.691848
0.633589
0.575709
0.52026
0.468903
0.423319
0.384067
0.351373
0.324658
0.303068
0.285368
0.270879
0.259184
0.249661
0.241937
0.235622
0.230405
0.226065
0.222501
0.21951
0.217044
0.214986
0.213316
0.21202
0.211029
0.210372
0.210212
0.210716
0.212157
0.215233
0.221936
0.236009
0.271214
0.351321
0.532456
0.84037
1.07298
1.15299
1.1742
1.17232
1.15378
1.13258
1.10873
1.08213
1.0526
1.01995
0.983956
0.944464
0.903263
0.864211
0.822125
0.777148
0.730676
0.683723
0.635275
0.587086
0.539925
0.495138
0.453703
0.416583
0.384218
0.356715
0.334047
0.315542
0.300348
0.287878
0.277543
0.26891
0.261754
0.255741
0.250647
0.246343
0.242678
0.239653
0.237268
0.235441
0.234419
0.234737
0.236502
0.240449
0.249198
0.269173
0.317903
0.422896
0.651213
0.940802
1.10907
1.16176
1.17605
1.17445
1.16098
1.14555
1.1281
1.10859
1.08692
1.06299
1.0367
1.00864
0.978701
0.946471
0.911922
0.878151
0.843786
0.807138
0.768384
0.729059
0.689878
0.648773
0.60689
0.565283
0.525057
0.487137
0.452852
0.422971
0.397247
0.375421
0.356764
0.340782
0.327195
0.315521
0.305425
0.296788
0.289347
0.283096
0.277943
0.274071
0.271715
0.271623
0.273992
0.279622
0.29294
0.324947
0.395738
0.544383
0.804805
1.03626
1.1376
1.16889
1.17761
1.17607
1.16637
1.15519
1.14246
1.12811
1.11208
1.09449
1.0755
1.05489
1.03264
1.0087
0.982992
0.955439
0.925958
0.894442
0.865751
0.836533
0.804969
0.77104
0.735005
0.6978
0.659545
0.620987
0.582942
0.54682
0.513777
0.484038
0.457441
0.433729
0.413004
0.394858
0.379159
0.365481
0.353881
0.344117
0.336428
0.330785
0.327776
0.328362
0.332462
0.342949
0.368032
0.422795
0.532572
0.731748
0.963664
1.10486
1.15757
1.17406
1.17878
1.17734
1.17053
1.16261
1.15351
1.1432
1.13164
1.11882
1.10473
1.08936
1.07269
1.05469
1.03532
1.01448
0.992099
0.969456
0.94552
0.919763
0.891925
0.864446
0.835217
0.803397
0.769915
0.735269
0.699378
0.663209
0.628164
0.595405
0.565067
0.537332
0.512293
0.489876
0.470036
0.452809
0.438087
0.426351
0.41802
0.412917
0.412319
0.416496
0.427506
0.453229
0.504415
0.597025
0.749788
0.93882
1.08153
1.14616
1.16981
1.17733
1.17954
1.17838
1.17391
1.16857
1.1623
1.15503
1.14677
1.13748
1.12718
1.11586
1.10351
1.09013
1.07565
1.0604
1.04477
1.02806
1.01006
0.99049
0.969042
0.945316
0.919625
0.892176
0.863918
0.83363
0.801234
0.767613
0.734103
0.702117
0.672135
0.644608
0.619753
0.597691
0.578508
0.562309
0.54932
0.539769
0.534796
0.536071
0.542271
0.558556
0.590666
0.643935
0.725787
0.841739
0.9779
1.08523
1.14278
1.1673
1.17623
1.1791
1.17997
1.17922
1.17657
1.17322
1.16911
1.16422
1.15854
1.15206
1.1448
1.13674
1.1279
1.11859
1.10876
1.09825
1.08704
1.07501
1.06198
1.04769
1.03211
1.01559
0.996837
0.975414
0.951158
0.924329
0.895481
0.86644
0.837445
0.809633
0.783642
0.760085
0.739417
0.721985
0.708004
0.697883
0.692324
0.691757
0.69553
0.707999
0.731285
0.767347
0.817641
0.882826
0.968224
1.05083
1.11344
1.15077
1.16889
1.17633
1.17902
1.17989
1.18016
1.1799
1.1787
1.17684
1.17443
1.17146
1.16793
1.16391
1.15937
1.15433
1.14879
1.14277
1.13628
1.12931
1.12185
1.11387
1.10566
1.09683
1.08697
1.07578
1.06284
1.04773
1.03028
1.01069
0.989472
0.967227
0.944771
0.92332
0.903585
0.886397
0.872985
0.863318
0.857946
0.856838
0.859531
0.869431
0.886549
0.912773
0.947539
0.990418
1.0365
1.08134
1.11952
1.14743
1.16471
1.17375
1.17782
1.17942
1.17999
1.18017
1.18023
1.18024
1.17996
1.17942
1.17859
1.17747
1.17605
1.17434
1.17232
1.17
1.16737
1.16448
1.1614
1.15818
1.15472
1.15103
1.1471
1.14279
1.13793
1.13236
1.12593
1.11852
1.11016
1.10097
1.09127
1.08145
1.07195
1.06342
1.05639
1.05133
1.0487
1.04889
1.05213
1.05852
1.06795
1.08026
1.09473
1.11035
1.12606
1.1409
1.15353
1.16346
1.17052
1.17505
1.17791
1.17946
1.17998
1.18014
1.18022
1.18024
1.18025
)
;

boundaryField
{
    AXIS
    {
        type            empty;
    }
    OUTLET
    {
        type            calculated;
        value           nonuniform List<scalar> 
25
(
1.15703
1.15714
1.15741
1.15787
1.15851
1.15929
1.1602
1.1612
1.16224
1.16331
1.16438
1.16554
1.16689
1.16847
1.17027
1.17222
1.1742
1.17605
1.17761
1.17878
1.17954
1.17997
1.18016
1.18023
1.18025
)
;
    }
    COFLOW
    {
        type            calculated;
        value           nonuniform List<scalar> 
15
(
1.18028
1.18028
1.18027
1.18026
1.18026
1.18026
1.18026
1.18026
1.18025
1.18025
1.18025
1.18025
1.18025
1.18025
1.18025
)
;
    }
    PILOT
    {
        type            calculated;
        value           nonuniform List<scalar> 5(0.156771 0.156774 0.156788 0.156793 0.156796);
    }
    FUEL
    {
        type            calculated;
        value           nonuniform List<scalar> 5(1.05079 1.05076 1.05089 1.05126 1.0515);
    }
    WALL
    {
        type            calculated;
        value           nonuniform List<scalar> 
50
(
1.18024
1.17996
1.17942
1.17859
1.17747
1.17605
1.17434
1.17232
1.17
1.16737
1.16448
1.1614
1.15818
1.15472
1.15103
1.1471
1.14279
1.13793
1.13236
1.12593
1.11852
1.11016
1.10097
1.09127
1.08145
1.07195
1.06342
1.05639
1.05133
1.0487
1.04889
1.05213
1.05852
1.06795
1.08026
1.09473
1.11035
1.12606
1.1409
1.15353
1.16346
1.17052
1.17505
1.17791
1.17946
1.17998
1.18014
1.18022
1.18024
1.18025
)
;
    }
    front
    {
        type            wedge;
    }
    back
    {
        type            wedge;
    }
}


// ************************************************************************* //
