/*--------------------------------*- C++ -*----------------------------------*\
| =========                 |                                                 |
| \\      /  F ield         | OpenFOAM: The Open Source CFD Toolbox           |
|  \\    /   O peration     | Version:  2.4.x                                 |
|   \\  /    A nd           | Web:      www.OpenFOAM.org                      |
|    \\/     M anipulation  |                                                 |
\*---------------------------------------------------------------------------*/
FoamFile
{
    version     2.0;
    format      ascii;
    class       volScalarField;
    location    "0.08";
    object      T;
}
// * * * * * * * * * * * * * * * * * * * * * * * * * * * * * * * * * * * * * //

dimensions      [0 0 0 1 0 0 0];

internalField   nonuniform List<scalar> 
1250
(
308.11
345.551
385.192
423.071
459.977
495.55
530.006
563.457
597.496
637.374
677.486
716.726
756.873
797.702
838.428
880.061
920.422
958.486
996.521
1034.86
1073.47
1112.46
1151.6
1186.88
1225.04
1264.76
1304.02
1342.33
1380.07
1416.74
1452.62
1487.57
1520.68
1551.16
1580.91
1609.2
1636.44
1663.64
1688.19
1714.39
1738.42
1754.91
1777.79
1790.02
1679.32
1274.9
786.789
445.971
326.151
299.847
310.401
352.137
393.381
432.243
469.472
504.824
538.657
571.29
609.296
649.377
689.364
728.439
768.549
808.901
849.508
890.972
930.867
968.541
1006.39
1044.45
1082.91
1121.68
1160.53
1195.51
1231.53
1271.11
1310.04
1348.2
1385.61
1422.06
1457.7
1492.42
1525.54
1555.8
1585.29
1613.32
1640.34
1667.24
1691.57
1717.51
1741.3
1757.58
1780.07
1789.84
1677.24
1271.85
785.278
445.386
326.009
299.821
317.597
370.606
415.476
455.944
492.776
525.972
559.807
598.017
637.214
677.065
716.598
755.246
794.556
834.146
874.548
915.322
954.045
991.006
1028.24
1065.82
1103.8
1141.95
1180.16
1214.33
1247.33
1285.1
1323.42
1361.19
1397.93
1433.95
1469.03
1503.15
1536.23
1565.97
1594.81
1622.25
1648.84
1675.12
1699.02
1724.41
1747.68
1763.54
1785.05
1789.45
1672.25
1264.24
781.125
443.657
325.598
299.751
339.394
412.483
460.964
498.086
532.427
569.7
606.872
644.106
682.426
721.526
759.612
796.808
834.889
873.67
912.893
952.364
989.351
1025.21
1061.61
1098.37
1135.29
1172.38
1209.24
1242.31
1274.1
1305.86
1343.56
1380.37
1416.43
1451.68
1485.84
1519.03
1551.33
1581.09
1609.01
1635.67
1661.49
1686.87
1710.01
1734.66
1756.75
1772.28
1792.17
1788.06
1663.56
1251.83
773.913
440.659
324.894
299.633
424.999
515.345
543.363
577.327
609.466
640.944
674.132
708.927
745.246
782.654
817.876
853.279
889.312
925.852
963.258
1001.51
1036.18
1070.86
1105.77
1141.03
1176.31
1211.64
1246.9
1278.55
1308.84
1338.75
1369.86
1405.76
1440.69
1474.67
1507.72
1539.91
1570.88
1600.75
1627.57
1653.09
1677.84
1702.01
1724.23
1747.76
1768.41
1783.34
1800.79
1785.53
1651.41
1235.14
763.654
436.446
323.916
299.47
920.358
726.445
696.401
703.379
721.971
745.113
772.288
802.802
834.091
865.326
893.866
923.903
954.937
989.653
1025.3
1061.34
1093.55
1126.15
1159.12
1192.36
1225.46
1258.6
1291.7
1321.88
1350.21
1378.53
1406.56
1436.55
1470.07
1502.73
1534.19
1564.65
1594.15
1622.71
1649.78
1673.95
1697.32
1720.13
1741.03
1763.12
1781.91
1795.76
1810.16
1781.48
1635.76
1214.77
750.371
431.137
322.697
299.269
1464.91
995.708
878.08
848.588
847.054
861.659
882.541
907.32
934.756
960.855
985.68
1011.99
1039.18
1067.17
1096.29
1129.13
1158.98
1189.19
1219.72
1250.44
1280.83
1311.47
1342.42
1370.95
1397.08
1423.27
1449.35
1475.29
1503.93
1534.53
1564.21
1592.94
1620.65
1647.35
1673.05
1697.19
1719.05
1739.98
1759.43
1779.65
1796.34
1808.39
1818
1775.02
1615.38
1190.89
734.417
424.9
321.278
299.037
1739.3
1158.01
1005.1
968.03
959.677
972.49
991.808
1014.36
1039.08
1060.68
1082.07
1104.67
1128.33
1152.42
1177.03
1200.99
1228.21
1255.78
1283.7
1311.75
1339.94
1368.25
1396.73
1423.8
1447.77
1471.56
1495.31
1518.84
1542.33
1569.5
1596.88
1623.39
1648.98
1673.68
1697.34
1719.95
1741.88
1760.8
1778.6
1796.62
1810.79
1820.63
1821.45
1765.58
1590.78
1163.94
715.97
417.955
319.718
298.782
1712
1152.77
1026.08
1021.58
1038.17
1057
1082.98
1108.51
1133.59
1153.83
1173.99
1194.59
1215.71
1237.01
1258.74
1279.04
1299.76
1324.88
1350.38
1375.95
1401.4
1427
1452.79
1477.93
1499.52
1520.94
1542.26
1563.36
1584.41
1605.56
1630.78
1654.9
1678.07
1700.45
1721.69
1742.05
1761.7
1779.93
1797
1812.47
1823.7
1829.8
1821.43
1752.67
1561.73
1134.54
695.436
410.555
318.076
298.515
1272.21
917.582
896.015
979.815
1045.1
1096.34
1137.42
1174.36
1207.38
1237.38
1263.91
1288.25
1311.19
1332.51
1352.71
1366.15
1380
1400.27
1421.99
1443.74
1465.45
1487.26
1508.92
1530.43
1549.77
1568.87
1587.91
1606.69
1625.24
1643.69
1663.97
1685.57
1706.21
1726.01
1744.97
1762.83
1779.94
1795.63
1810.59
1823.81
1831.5
1832.91
1816.79
1736.05
1527.51
1103.22
673.457
402.971
316.416
298.245
452.708
577.666
681.011
828.855
963.236
1061.32
1135.67
1195.19
1238.04
1276.4
1314.98
1349.3
1378.88
1405.89
1429.79
1442.51
1454.8
1471.88
1489.67
1507.54
1525.43
1543.53
1561.58
1579.62
1596.94
1613.92
1630.63
1647.07
1663.36
1679.45
1695.62
1714.56
1732.46
1749.73
1765.79
1781.15
1795.56
1808.34
1820.47
1830.17
1834.67
1831.7
1806.29
1714.5
1487.96
1069.53
649.596
395.228
314.742
297.973
338.292
418.645
498.439
621.656
776.935
926.168
1050.68
1140.76
1213.68
1272.18
1317.4
1357.36
1391.35
1421.29
1446.52
1471.96
1497.6
1519.96
1538.91
1556.9
1574.11
1591.01
1607.53
1623.68
1639.3
1654.38
1669.14
1683.62
1697.62
1711.25
1724.65
1740.39
1755.37
1769.71
1782.89
1795.49
1806.64
1816.57
1825.58
1831.18
1832.02
1823.58
1787.36
1684.26
1441.59
1030.71
622.54
386.415
312.941
297.677
311.515
354.387
400.53
468.555
570.23
702.818
849.866
985.207
1096.72
1184.84
1256.09
1317.55
1367.79
1409.77
1445.62
1477.37
1505.56
1531.05
1554.56
1576.66
1597.36
1616.93
1635.72
1653.77
1669.45
1683.61
1697.15
1710.12
1722.46
1734.18
1745.52
1758.68
1770.87
1782.09
1792.44
1801.67
1809.8
1816.4
1821.76
1823.04
1819.85
1804.93
1756.29
1641.39
1382.8
983.147
590.321
375.314
310.902
297.336
303.077
326.7
355.161
391.131
442.969
515.523
613.252
733.417
861.69
986.825
1095.48
1187.68
1264.49
1327.87
1382.48
1429.76
1469.87
1505.77
1537.44
1566.11
1591.97
1615.75
1637.79
1658.2
1675.17
1690.07
1703.76
1716.45
1728.13
1738.77
1750.27
1761.05
1770.64
1779.27
1786.76
1793.1
1798.11
1801.72
1802.8
1800.23
1792.38
1769.79
1708.78
1579.51
1307.9
923.851
552.07
362.846
308.597
296.938
299.593
314.007
331.554
353.859
381.675
418.35
466.719
530.983
613.758
713.543
824.048
933.93
1034.9
1127.41
1208.38
1278.72
1339.81
1393.5
1441.66
1485.7
1523.82
1557.9
1588.41
1615
1636.3
1655.34
1672.27
1687.19
1701.65
1714.49
1725.73
1735.37
1743.5
1750.46
1755.74
1759.88
1762.62
1763.24
1760.84
1754.91
1741.96
1710.51
1638.88
1492.72
1214.85
848.792
507.793
349.34
306.07
296.486
297.793
307.3
318.794
332.756
350.103
371.887
397.124
430.037
470.847
522.305
585.246
660.177
746.433
839.205
932.695
1021.94
1104.64
1180.52
1248.67
1309.8
1364.48
1413.68
1457.03
1494.82
1527.88
1557.56
1583.26
1605.52
1623.97
1639.93
1653.27
1664.27
1673.32
1680.69
1685.98
1690.09
1692.23
1691.7
1687.36
1678.75
1660.51
1620.27
1540.07
1381.23
1101.65
755.272
459.813
335.696
303.434
295.996
296.705
303.3
311.186
320.541
331.693
345.121
361.472
380.784
402.622
429.636
461.409
498.309
543.385
597.044
659.42
730.049
806.711
886.86
966.808
1043.61
1115.12
1181.43
1241.82
1295.19
1342.12
1382.7
1417.7
1447.94
1474.09
1496.24
1515.35
1531.47
1545.21
1556.53
1565.44
1572.32
1576.87
1577.92
1574.2
1563.87
1542.44
1498.03
1413.4
1238.65
966.133
644.716
411.475
323.115
300.889
295.501
295.97
300.677
306.245
312.764
320.371
329.262
339.692
351.983
366.541
383.07
400.175
420.408
444.427
472.309
504.278
542.143
585.904
636.136
692.493
754.312
819.87
887.071
953.462
1016.11
1073.67
1126.02
1172.9
1214.79
1252.12
1284.81
1313.6
1338.99
1361.19
1380.67
1397.15
1410.36
1420.59
1426.25
1424.12
1413.64
1391.11
1344.19
1248.67
1064.29
807.314
529.09
368.026
312.696
298.638
295.04
295.439
298.832
302.817
307.452
312.81
318.985
326.093
334.278
343.482
353.88
365.801
379.508
393.939
409.799
428.184
449.512
473.429
499.924
531.109
567.159
608.173
653.892
703.764
755.89
808.043
859.06
907.668
953.781
997.162
1037.24
1074.33
1108.58
1139.64
1167.8
1192.51
1213.64
1229.94
1239.98
1240.12
1229.52
1205.42
1152.46
1042.7
861.325
630.893
429.425
334.452
304.924
296.833
294.654
295.037
297.467
300.318
303.631
307.455
311.845
316.807
322.349
328.583
335.593
343.481
352.372
362.43
373.849
386.881
399.555
413.34
429.343
447.988
469.649
494.333
522.578
554.51
590.1
628.39
668.039
708.258
748.568
788.58
827.222
864.281
899.117
931.822
961.463
987.888
1009.71
1026.3
1035.3
1033.35
1020.84
990.437
924.761
807.926
644.661
471.696
359.384
313.877
299.709
295.537
294.364
294.722
296.42
298.421
300.751
303.439
306.509
309.989
313.906
318.294
323.193
328.655
334.748
341.557
349.19
357.26
366.206
376.345
387.954
400.14
413.974
430.164
448.616
469.442
493.173
519.655
548.181
577.845
608.342
639.181
669.849
699.915
728.869
756.031
780.897
801.9
817.473
827.289
828.404
820.237
799.555
755.141
680.028
576.343
460.515
368.79
320.582
302.666
296.6
294.722
294.175
294.464
295.575
296.912
298.501
300.36
302.506
304.953
307.715
310.808
314.254
318.078
322.321
326.913
331.757
337.094
343.04
349.746
357.404
366.275
376.385
387.813
400.33
414.682
431.221
449.844
470.084
491.194
512.787
534.358
555.458
575.646
594.438
611.293
625.52
636.421
642.255
640.742
633.536
615.381
582.479
535.034
475.528
410.811
354.204
319.499
303.553
297.233
294.996
294.283
294.07
294.255
294.912
295.747
296.777
298.013
299.461
301.129
303.024
305.153
307.525
310.06
312.784
315.748
318.975
322.511
326.429
330.835
335.777
341.174
347.516
355.054
363.995
374.425
386.33
399.116
412.762
426.762
440.734
454.216
466.746
477.869
487.194
494.182
498.118
498.547
495.906
487.307
471.999
450.109
422.763
391.902
357.703
329.856
311.478
301.464
296.831
294.969
294.302
294.087
294.022
294.086
294.385
294.845
295.445
296.187
297.074
298.091
299.249
300.545
301.981
303.558
305.276
307.143
309.165
311.359
313.649
316.147
318.982
322.261
326.14
330.787
336.323
342.765
350.029
357.984
366.392
374.803
382.892
390.23
396.164
400.558
403.048
403.576
402.339
397.825
390.247
379.177
365.421
349.766
334.37
320.637
309.8
302.333
297.886
295.611
294.6
294.204
294.064
294.018
294.004
294.004
294.072
294.206
294.41
294.688
295.041
295.466
295.97
296.554
297.214
297.944
298.727
299.549
300.437
301.389
302.412
303.539
304.819
306.301
308.031
310.045
312.355
314.932
317.698
320.551
323.36
325.925
328.073
329.637
330.458
330.404
329.401
327.44
324.585
320.927
316.731
312.322
308.01
304.04
300.743
298.201
296.418
295.287
294.577
294.193
294.064
294.025
294.007
294.002
294
)
;

boundaryField
{
    AXIS
    {
        type            empty;
    }
    OUTLET
    {
        type            calculated;
        value           nonuniform List<scalar> 
25
(
299.847
299.821
299.751
299.633
299.47
299.269
299.037
298.782
298.515
298.245
297.973
297.677
297.336
296.938
296.486
295.996
295.501
295.04
294.654
294.364
294.175
294.07
294.022
294.004
294
)
;
    }
    COFLOW
    {
        type            calculated;
        value           uniform 294;
    }
    PILOT
    {
        type            calculated;
        value           uniform 2102.68;
    }
    FUEL
    {
        type            calculated;
        value           uniform 294;
    }
    WALL
    {
        type            calculated;
        value           nonuniform List<scalar> 
50
(
294.004
294.072
294.206
294.41
294.688
295.041
295.466
295.97
296.554
297.214
297.944
298.727
299.549
300.437
301.389
302.412
303.539
304.819
306.301
308.031
310.045
312.355
314.932
317.698
320.551
323.36
325.925
328.073
329.637
330.458
330.404
329.401
327.44
324.585
320.927
316.731
312.322
308.01
304.04
300.743
298.201
296.418
295.287
294.577
294.193
294.064
294.025
294.007
294.002
294
)
;
    }
    front
    {
        type            wedge;
    }
    back
    {
        type            wedge;
    }
}


// ************************************************************************* //
