/*--------------------------------*- C++ -*----------------------------------*\
| =========                 |                                                 |
| \\      /  F ield         | OpenFOAM: The Open Source CFD Toolbox           |
|  \\    /   O peration     | Version:  2.4.x                                 |
|   \\  /    A nd           | Web:      www.OpenFOAM.org                      |
|    \\/     M anipulation  |                                                 |
\*---------------------------------------------------------------------------*/
FoamFile
{
    version     2.0;
    format      ascii;
    class       volScalarField;
    location    "0.08";
    object      thermo:mu;
}
// * * * * * * * * * * * * * * * * * * * * * * * * * * * * * * * * * * * * * //

dimensions      [1 -1 -1 0 0 0 0];

internalField   nonuniform List<scalar> 
1250
(
1.88881e-05
2.08065e-05
2.27413e-05
2.45069e-05
2.61568e-05
2.76872e-05
2.91186e-05
3.0464e-05
3.17917e-05
3.32983e-05
3.47649e-05
3.61559e-05
3.75377e-05
3.89032e-05
4.02283e-05
4.15474e-05
4.27943e-05
4.39432e-05
4.50666e-05
4.61754e-05
4.72696e-05
4.8353e-05
4.94196e-05
5.0364e-05
5.13685e-05
5.23959e-05
5.33941e-05
5.43522e-05
5.52816e-05
5.61712e-05
5.70295e-05
5.78543e-05
5.86261e-05
5.93284e-05
6.00065e-05
6.06449e-05
6.12536e-05
6.18562e-05
6.23953e-05
6.29661e-05
6.34853e-05
6.38393e-05
6.43275e-05
6.4587e-05
6.22011e-05
5.26553e-05
3.85419e-05
2.55384e-05
1.98241e-05
1.84519e-05
1.90082e-05
2.11345e-05
2.31296e-05
2.49232e-05
2.65708e-05
2.80772e-05
2.94705e-05
3.07731e-05
3.22428e-05
3.37422e-05
3.51903e-05
3.65632e-05
3.79321e-05
3.92711e-05
4.05828e-05
4.18875e-05
4.31121e-05
4.42425e-05
4.53542e-05
4.64494e-05
4.75338e-05
4.86061e-05
4.96602e-05
5.05928e-05
5.15376e-05
5.25585e-05
5.35456e-05
5.44976e-05
5.54167e-05
5.62992e-05
5.715e-05
5.79679e-05
5.87386e-05
5.94344e-05
6.01057e-05
6.07373e-05
6.13404e-05
6.19355e-05
6.24693e-05
6.30336e-05
6.35472e-05
6.38965e-05
6.43758e-05
6.45831e-05
6.21554e-05
5.25773e-05
3.84917e-05
2.55123e-05
1.98168e-05
1.84505e-05
1.93831e-05
2.20402e-05
2.4159e-05
2.59796e-05
2.75699e-05
2.89535e-05
3.03192e-05
3.18117e-05
3.32924e-05
3.47498e-05
3.61514e-05
3.74824e-05
3.87993e-05
4.00907e-05
4.13747e-05
4.26384e-05
4.38104e-05
4.49051e-05
4.59855e-05
4.70545e-05
4.81142e-05
4.91586e-05
5.01853e-05
5.10883e-05
5.19472e-05
5.2915e-05
5.38811e-05
5.48183e-05
5.57164e-05
5.65842e-05
5.7418e-05
5.82186e-05
5.89852e-05
5.96667e-05
6.03208e-05
6.09372e-05
6.15291e-05
6.21088e-05
6.26317e-05
6.31831e-05
6.36842e-05
6.40239e-05
6.44817e-05
6.45749e-05
6.20459e-05
5.23824e-05
3.83534e-05
2.54353e-05
1.97957e-05
1.84467e-05
2.04973e-05
2.40211e-05
2.62e-05
2.77943e-05
2.92174e-05
3.07105e-05
3.21505e-05
3.35478e-05
3.49423e-05
3.63232e-05
3.76305e-05
3.88737e-05
4.01146e-05
4.13472e-05
4.2564e-05
4.37601e-05
4.48566e-05
4.58985e-05
4.69358e-05
4.79639e-05
4.89775e-05
4.99779e-05
5.09548e-05
5.18173e-05
5.26349e-05
5.34405e-05
5.43826e-05
5.52889e-05
5.61637e-05
5.70071e-05
5.78137e-05
5.85878e-05
5.93321e-05
6.00105e-05
6.06405e-05
6.12366e-05
6.18087e-05
6.23664e-05
6.28709e-05
6.34043e-05
6.38786e-05
6.42103e-05
6.46324e-05
6.45455e-05
6.18544e-05
5.20633e-05
3.81123e-05
2.53014e-05
1.97596e-05
1.84405e-05
2.45948e-05
2.85154e-05
2.96608e-05
3.10098e-05
3.22493e-05
3.34308e-05
3.46441e-05
3.58827e-05
3.71416e-05
3.84044e-05
3.95641e-05
4.07029e-05
4.18359e-05
4.29597e-05
4.40854e-05
4.52121e-05
4.62133e-05
4.71962e-05
4.81685e-05
4.91335e-05
5.00829e-05
5.10177e-05
5.19362e-05
5.27485e-05
5.35154e-05
5.42632e-05
5.50315e-05
5.5906e-05
5.67453e-05
5.7551e-05
5.8325e-05
5.90699e-05
5.97785e-05
6.04547e-05
6.10562e-05
6.16231e-05
6.21685e-05
6.26971e-05
6.31791e-05
6.3686e-05
6.41277e-05
6.44454e-05
6.48148e-05
6.44918e-05
6.1586e-05
5.16314e-05
3.77671e-05
2.51125e-05
1.97094e-05
1.84318e-05
4.27923e-05
3.64941e-05
3.54406e-05
3.56874e-05
3.63387e-05
3.7137e-05
3.80578e-05
3.90711e-05
4.00889e-05
4.10845e-05
4.19773e-05
4.29004e-05
4.38371e-05
4.48655e-05
4.59012e-05
4.69283e-05
4.78302e-05
4.87282e-05
4.96223e-05
5.05094e-05
5.13795e-05
5.22376e-05
5.30826e-05
5.38427e-05
5.45474e-05
5.52439e-05
5.59253e-05
5.66463e-05
5.74426e-05
5.82087e-05
5.89381e-05
5.96365e-05
6.03059e-05
6.09475e-05
6.15499e-05
6.20831e-05
6.25947e-05
6.30904e-05
6.35413e-05
6.40147e-05
6.4415e-05
6.47084e-05
6.50122e-05
6.44059e-05
6.12387e-05
5.10999e-05
3.73165e-05
2.48732e-05
1.96466e-05
1.84211e-05
5.73208e-05
4.50428e-05
4.14854e-05
4.05534e-05
4.05045e-05
4.09686e-05
4.16249e-05
4.23929e-05
4.32299e-05
4.40139e-05
4.47488e-05
4.55169e-05
4.62989e-05
4.70927e-05
4.79064e-05
4.88097e-05
4.96183e-05
5.04255e-05
5.12296e-05
5.20276e-05
5.28064e-05
5.35816e-05
5.43545e-05
5.50581e-05
5.56957e-05
5.63282e-05
5.69518e-05
5.75656e-05
5.82368e-05
5.89461e-05
5.96265e-05
6.02787e-05
6.09014e-05
6.14961e-05
6.20635e-05
6.25918e-05
6.3067e-05
6.35188e-05
6.3936e-05
6.43669e-05
6.47207e-05
6.4975e-05
6.51772e-05
6.42685e-05
6.07835e-05
5.04704e-05
3.67697e-05
2.45903e-05
1.95735e-05
1.84088e-05
6.35041e-05
4.95925e-05
4.53167e-05
4.42273e-05
4.39787e-05
4.43596e-05
4.49286e-05
4.55855e-05
4.62961e-05
4.69095e-05
4.75103e-05
4.81382e-05
4.87879e-05
4.94417e-05
5.0102e-05
5.07376e-05
5.14512e-05
5.21652e-05
5.28794e-05
5.35887e-05
5.42927e-05
5.49919e-05
5.56872e-05
5.63409e-05
5.69141e-05
5.74777e-05
5.80355e-05
5.85833e-05
5.91255e-05
5.97471e-05
6.03676e-05
6.09627e-05
6.15321e-05
6.20772e-05
6.25951e-05
6.30865e-05
6.35596e-05
6.39652e-05
6.43446e-05
6.47267e-05
6.50255e-05
6.52323e-05
6.52495e-05
6.40673e-05
6.02299e-05
4.97517e-05
3.61294e-05
2.42729e-05
1.94929e-05
1.83953e-05
6.29141e-05
4.94513e-05
4.59236e-05
4.5794e-05
4.62701e-05
4.68056e-05
4.75358e-05
4.82442e-05
4.89314e-05
4.94797e-05
5.00209e-05
5.05686e-05
5.11246e-05
5.16801e-05
5.22412e-05
5.27609e-05
5.32864e-05
5.39176e-05
5.45516e-05
5.51806e-05
5.58006e-05
5.64176e-05
5.70335e-05
5.76278e-05
5.81339e-05
5.8632e-05
5.9124e-05
5.96072e-05
6.00858e-05
6.0563e-05
6.11278e-05
6.16631e-05
6.21737e-05
6.2663e-05
6.31242e-05
6.35632e-05
6.39846e-05
6.43728e-05
6.47346e-05
6.50609e-05
6.52967e-05
6.54245e-05
6.52491e-05
6.37913e-05
5.957e-05
4.89572e-05
3.54063e-05
2.3932e-05
1.94079e-05
1.83811e-05
5.25866e-05
4.27075e-05
4.20439e-05
4.45761e-05
4.64679e-05
4.79076e-05
4.90355e-05
5.00306e-05
5.09058e-05
5.16896e-05
5.23741e-05
5.29952e-05
5.35745e-05
5.4108e-05
5.46092e-05
5.49404e-05
5.52797e-05
5.57732e-05
5.62975e-05
5.68182e-05
5.73334e-05
5.78471e-05
5.83531e-05
5.88515e-05
5.92964e-05
5.97327e-05
6.01649e-05
6.05884e-05
6.1004e-05
6.14148e-05
6.18635e-05
6.2338e-05
6.27883e-05
6.32175e-05
6.36261e-05
6.40087e-05
6.43731e-05
6.47056e-05
6.50213e-05
6.52991e-05
6.54601e-05
6.54896e-05
6.51517e-05
6.34342e-05
5.8784e-05
4.8098e-05
3.46197e-05
2.35796e-05
1.93218e-05
1.83667e-05
2.5837e-05
3.10231e-05
3.48916e-05
3.992e-05
4.40848e-05
4.69277e-05
4.8988e-05
5.05844e-05
5.17067e-05
5.26935e-05
5.36696e-05
5.45248e-05
5.52524e-05
5.59092e-05
5.64848e-05
5.67887e-05
5.70812e-05
5.74854e-05
5.79036e-05
5.83208e-05
5.8736e-05
5.91531e-05
5.95665e-05
5.99771e-05
6.03689e-05
6.07507e-05
6.11243e-05
6.14898e-05
6.18499e-05
6.22038e-05
6.25577e-05
6.29697e-05
6.33567e-05
6.37282e-05
6.40718e-05
6.43989e-05
6.47042e-05
6.49739e-05
6.5229e-05
6.54322e-05
6.55263e-05
6.54643e-05
6.49307e-05
6.29685e-05
5.78633e-05
4.7159e-05
3.37502e-05
2.32167e-05
1.92348e-05
1.83522e-05
2.04417e-05
2.43045e-05
2.78091e-05
3.27105e-05
3.82134e-05
4.29694e-05
4.66263e-05
4.91263e-05
5.10713e-05
5.25858e-05
5.37303e-05
5.4724e-05
5.55564e-05
5.62805e-05
5.68843e-05
5.74872e-05
5.80891e-05
5.86093e-05
5.9047e-05
5.94596e-05
5.9852e-05
6.02351e-05
6.06072e-05
6.09693e-05
6.13174e-05
6.16518e-05
6.19773e-05
6.22953e-05
6.26012e-05
6.28979e-05
6.31882e-05
6.35277e-05
6.3849e-05
6.41554e-05
6.44357e-05
6.47028e-05
6.49381e-05
6.51471e-05
6.53361e-05
6.54534e-05
6.54709e-05
6.52942e-05
6.45306e-05
6.23093e-05
5.67669e-05
4.60566e-05
3.27438e-05
2.27995e-05
1.91409e-05
1.83365e-05
1.90665e-05
2.12459e-05
2.34655e-05
2.6531e-05
3.07313e-05
3.56676e-05
4.05942e-05
4.47349e-05
4.7918e-05
5.03099e-05
5.21731e-05
5.37343e-05
5.49806e-05
5.60031e-05
5.68629e-05
5.76146e-05
5.82747e-05
5.88658e-05
5.94062e-05
5.991e-05
6.03785e-05
6.08181e-05
6.12378e-05
6.16382e-05
6.19842e-05
6.2295e-05
6.2591e-05
6.28734e-05
6.31409e-05
6.33939e-05
6.36378e-05
6.39199e-05
6.41801e-05
6.44187e-05
6.46383e-05
6.48333e-05
6.50046e-05
6.51435e-05
6.52561e-05
6.52829e-05
6.5216e-05
6.4902e-05
6.38688e-05
6.13637e-05
5.53482e-05
4.46743e-05
3.15151e-05
2.22678e-05
1.90344e-05
1.83183e-05
1.8623e-05
1.98523e-05
2.12842e-05
2.30233e-05
2.54046e-05
2.85228e-05
3.23931e-05
3.67352e-05
4.09696e-05
4.47824e-05
4.78839e-05
5.03854e-05
5.23889e-05
5.39922e-05
5.53404e-05
5.64839e-05
5.7438e-05
5.82796e-05
5.9013e-05
5.96698e-05
6.02567e-05
6.07917e-05
6.12837e-05
6.17361e-05
6.211e-05
6.24365e-05
6.27351e-05
6.30108e-05
6.32633e-05
6.34928e-05
6.37398e-05
6.39706e-05
6.41752e-05
6.43588e-05
6.45178e-05
6.46522e-05
6.47581e-05
6.48343e-05
6.48572e-05
6.48028e-05
6.4637e-05
6.41571e-05
6.28443e-05
5.99746e-05
5.34918e-05
4.28988e-05
3.00106e-05
2.16622e-05
1.89137e-05
1.82971e-05
1.84384e-05
1.91965e-05
2.01002e-05
2.12198e-05
2.25734e-05
2.4291e-05
2.64512e-05
2.91585e-05
3.24122e-05
3.60446e-05
3.97645e-05
4.32049e-05
4.61765e-05
4.87628e-05
5.09322e-05
5.27528e-05
5.42897e-05
5.56087e-05
5.67686e-05
5.78105e-05
5.86987e-05
5.94826e-05
6.01762e-05
6.0775e-05
6.12506e-05
6.1673e-05
6.20462e-05
6.23734e-05
6.26891e-05
6.29682e-05
6.32116e-05
6.34194e-05
6.35944e-05
6.3744e-05
6.38571e-05
6.39455e-05
6.40041e-05
6.40175e-05
6.39661e-05
6.38392e-05
6.35614e-05
6.28817e-05
6.13081e-05
5.7975e-05
5.11021e-05
4.056e-05
2.82013e-05
2.09955e-05
1.87808e-05
1.8273e-05
1.83427e-05
1.88455e-05
1.94451e-05
2.01613e-05
2.10335e-05
2.21023e-05
2.33058e-05
2.48234e-05
2.66304e-05
2.88028e-05
3.13185e-05
3.41378e-05
3.71822e-05
4.02533e-05
4.31675e-05
4.58044e-05
4.81374e-05
5.01949e-05
5.19818e-05
5.35395e-05
5.48994e-05
5.60973e-05
5.7134e-05
5.80241e-05
5.87926e-05
5.94748e-05
6.00597e-05
6.0562e-05
6.09758e-05
6.13314e-05
6.16271e-05
6.18701e-05
6.20693e-05
6.2231e-05
6.2347e-05
6.2437e-05
6.24837e-05
6.24722e-05
6.23772e-05
6.21885e-05
6.17871e-05
6.08928e-05
5.90737e-05
5.53097e-05
4.80548e-05
3.74833e-05
2.61496e-05
2.03105e-05
1.86418e-05
1.82469e-05
1.82847e-05
1.86347e-05
1.90493e-05
1.95354e-05
2.01072e-05
2.07849e-05
2.15949e-05
2.25307e-05
2.35633e-05
2.48053e-05
2.62195e-05
2.78036e-05
2.96617e-05
3.17743e-05
3.41102e-05
3.66189e-05
3.91994e-05
4.17596e-05
4.4191e-05
4.64254e-05
4.8426e-05
5.02191e-05
5.18047e-05
5.3171e-05
5.43469e-05
5.53456e-05
5.61941e-05
5.69182e-05
5.75375e-05
5.80573e-05
5.85025e-05
5.88756e-05
5.91917e-05
5.94513e-05
5.96546e-05
5.98112e-05
5.99148e-05
5.99386e-05
5.98541e-05
5.96189e-05
5.91281e-05
5.80991e-05
5.60907e-05
5.17227e-05
4.4171e-05
3.35703e-05
2.39745e-05
1.96682e-05
1.85072e-05
1.82204e-05
1.82455e-05
1.84959e-05
1.87901e-05
1.91317e-05
1.95267e-05
1.99833e-05
2.05124e-05
2.11269e-05
2.18426e-05
2.264e-05
2.34489e-05
2.43853e-05
2.54696e-05
2.66937e-05
2.80544e-05
2.96116e-05
3.1344e-05
3.32523e-05
3.53018e-05
3.74507e-05
3.96289e-05
4.17662e-05
4.3793e-05
4.56361e-05
4.72752e-05
4.87247e-05
4.99917e-05
5.11004e-05
5.20708e-05
5.29076e-05
5.3635e-05
5.42692e-05
5.48184e-05
5.52962e-05
5.56974e-05
5.60173e-05
5.62638e-05
5.63998e-05
5.63486e-05
5.60963e-05
5.55507e-05
5.43983e-05
5.19818e-05
4.70116e-05
3.92192e-05
2.90811e-05
2.19149e-05
1.91281e-05
1.83876e-05
1.81958e-05
1.82171e-05
1.83979e-05
1.86092e-05
1.88536e-05
1.91341e-05
1.9455e-05
1.98212e-05
2.02386e-05
2.07028e-05
2.12208e-05
2.18066e-05
2.24695e-05
2.31559e-05
2.3897e-05
2.47395e-05
2.56956e-05
2.67421e-05
2.78717e-05
2.91636e-05
3.06103e-05
3.22001e-05
3.3908e-05
3.5701e-05
3.75043e-05
3.92431e-05
4.08864e-05
4.24036e-05
4.38025e-05
4.50853e-05
4.62437e-05
4.72936e-05
4.82461e-05
4.90957e-05
4.98554e-05
5.05134e-05
5.10704e-05
5.14963e-05
5.1757e-05
5.17607e-05
5.14853e-05
5.08543e-05
4.94427e-05
4.63993e-05
4.09581e-05
3.30569e-05
2.47957e-05
2.02474e-05
1.87205e-05
1.82915e-05
1.81752e-05
1.81956e-05
1.83253e-05
1.84768e-05
1.86522e-05
1.88537e-05
1.90837e-05
1.93421e-05
1.96287e-05
1.99486e-05
2.03053e-05
2.07028e-05
2.11461e-05
2.16418e-05
2.21971e-05
2.28217e-05
2.34199e-05
2.40606e-05
2.4792e-05
2.5628e-05
2.65784e-05
2.76358e-05
2.8814e-05
3.01082e-05
3.15066e-05
3.29633e-05
3.44237e-05
3.58592e-05
3.72551e-05
3.86014e-05
3.98672e-05
4.10515e-05
4.21399e-05
4.3141e-05
4.4032e-05
4.48137e-05
4.54506e-05
4.59298e-05
4.61879e-05
4.61322e-05
4.57727e-05
4.48885e-05
4.29265e-05
3.92392e-05
3.35683e-05
2.66671e-05
2.14924e-05
1.91897e-05
1.84445e-05
1.82224e-05
1.81597e-05
1.81788e-05
1.82695e-05
1.83761e-05
1.84998e-05
1.86421e-05
1.8804e-05
1.89866e-05
1.91912e-05
1.94192e-05
1.96721e-05
1.99523e-05
2.02625e-05
2.06062e-05
2.0988e-05
2.13878e-05
2.18263e-05
2.23175e-05
2.28727e-05
2.34473e-05
2.40898e-05
2.48292e-05
2.56559e-05
2.65695e-05
2.75867e-05
2.86936e-05
2.98548e-05
3.10301e-05
3.22065e-05
3.33655e-05
3.44893e-05
3.5565e-05
3.65781e-05
3.75091e-05
3.83458e-05
3.90415e-05
3.9551e-05
3.98694e-05
3.99055e-05
3.96408e-05
3.89643e-05
3.74788e-05
3.48563e-05
3.09713e-05
2.61803e-05
2.19521e-05
1.95376e-05
1.86012e-05
1.82791e-05
1.81788e-05
1.81495e-05
1.8165e-05
1.82244e-05
1.82957e-05
1.83803e-05
1.84791e-05
1.85928e-05
1.8722e-05
1.88673e-05
1.90295e-05
1.92094e-05
1.9408e-05
1.96272e-05
1.98632e-05
2.01105e-05
2.03813e-05
2.06807e-05
2.10157e-05
2.13949e-05
2.18296e-05
2.23195e-05
2.28659e-05
2.34562e-05
2.41225e-05
2.4877e-05
2.57103e-05
2.65973e-05
2.75028e-05
2.84093e-05
2.9296e-05
3.0146e-05
3.0944e-05
3.1674e-05
3.23187e-05
3.28558e-05
3.32629e-05
3.34793e-05
3.34233e-05
3.31555e-05
3.24737e-05
3.12109e-05
2.93235e-05
2.68327e-05
2.39438e-05
2.12369e-05
1.94816e-05
1.86481e-05
1.83128e-05
1.81934e-05
1.81553e-05
1.81439e-05
1.81538e-05
1.8189e-05
1.82336e-05
1.82885e-05
1.83543e-05
1.84313e-05
1.85199e-05
1.86202e-05
1.87325e-05
1.88574e-05
1.89903e-05
1.91328e-05
1.92871e-05
1.94545e-05
1.9637e-05
1.98383e-05
2.00636e-05
2.03146e-05
2.0587e-05
2.09046e-05
2.12789e-05
2.17184e-05
2.2225e-05
2.27955e-05
2.33993e-05
2.4034e-05
2.46749e-05
2.53048e-05
2.59035e-05
2.64523e-05
2.69335e-05
2.73327e-05
2.76294e-05
2.77956e-05
2.78137e-05
2.77023e-05
2.73375e-05
2.66803e-05
2.5722e-05
2.44929e-05
2.30597e-05
2.14096e-05
2.00136e-05
1.90645e-05
1.85376e-05
1.82914e-05
1.8192e-05
1.81564e-05
1.81449e-05
1.81414e-05
1.81448e-05
1.81608e-05
1.81854e-05
1.82174e-05
1.8257e-05
1.83044e-05
1.83585e-05
1.84201e-05
1.84889e-05
1.8565e-05
1.86484e-05
1.8739e-05
1.88373e-05
1.89435e-05
1.90583e-05
1.91778e-05
1.93078e-05
1.94548e-05
1.96242e-05
1.98235e-05
2.00611e-05
2.03422e-05
2.06669e-05
2.10298e-05
2.14235e-05
2.18353e-05
2.22432e-05
2.26315e-05
2.29806e-05
2.32607e-05
2.34668e-05
2.35832e-05
2.36078e-05
2.35501e-05
2.33387e-05
2.29814e-05
2.24536e-05
2.1788e-05
2.10167e-05
2.02433e-05
1.95404e-05
1.89767e-05
1.85836e-05
1.83476e-05
1.82263e-05
1.81723e-05
1.81511e-05
1.81436e-05
1.81412e-05
1.81404e-05
1.81404e-05
1.81441e-05
1.81512e-05
1.81621e-05
1.8177e-05
1.81959e-05
1.82186e-05
1.82455e-05
1.82766e-05
1.83118e-05
1.83507e-05
1.83923e-05
1.8436e-05
1.84832e-05
1.85337e-05
1.85878e-05
1.86474e-05
1.87149e-05
1.8793e-05
1.88839e-05
1.89896e-05
1.91104e-05
1.92446e-05
1.93883e-05
1.9536e-05
1.96808e-05
1.98125e-05
1.99226e-05
2.00024e-05
2.00443e-05
2.00416e-05
1.99904e-05
1.98901e-05
1.97437e-05
1.95554e-05
1.93382e-05
1.91086e-05
1.88828e-05
1.86738e-05
1.84994e-05
1.83644e-05
1.82694e-05
1.8209e-05
1.81711e-05
1.81505e-05
1.81436e-05
1.81415e-05
1.81406e-05
1.81403e-05
1.81402e-05
)
;

boundaryField
{
    AXIS
    {
        type            empty;
    }
    OUTLET
    {
        type            calculated;
        value           nonuniform List<scalar> 
25
(
1.84519e-05
1.84505e-05
1.84467e-05
1.84405e-05
1.84318e-05
1.84211e-05
1.84088e-05
1.83953e-05
1.83811e-05
1.83667e-05
1.83522e-05
1.83365e-05
1.83183e-05
1.82971e-05
1.8273e-05
1.82469e-05
1.82204e-05
1.81958e-05
1.81752e-05
1.81597e-05
1.81495e-05
1.81439e-05
1.81414e-05
1.81404e-05
1.81402e-05
)
;
    }
    COFLOW
    {
        type            calculated;
        value           uniform 1.81402e-05;
    }
    PILOT
    {
        type            calculated;
        value           uniform 7.09187e-05;
    }
    FUEL
    {
        type            calculated;
        value           uniform 1.81402e-05;
    }
    WALL
    {
        type            calculated;
        value           nonuniform List<scalar> 
50
(
1.81404e-05
1.81441e-05
1.81512e-05
1.81621e-05
1.8177e-05
1.81959e-05
1.82186e-05
1.82455e-05
1.82766e-05
1.83118e-05
1.83507e-05
1.83923e-05
1.8436e-05
1.84832e-05
1.85337e-05
1.85878e-05
1.86474e-05
1.87149e-05
1.8793e-05
1.88839e-05
1.89896e-05
1.91104e-05
1.92446e-05
1.93883e-05
1.9536e-05
1.96808e-05
1.98125e-05
1.99226e-05
2.00024e-05
2.00443e-05
2.00416e-05
1.99904e-05
1.98901e-05
1.97437e-05
1.95554e-05
1.93382e-05
1.91086e-05
1.88828e-05
1.86738e-05
1.84994e-05
1.83644e-05
1.82694e-05
1.8209e-05
1.81711e-05
1.81505e-05
1.81436e-05
1.81415e-05
1.81406e-05
1.81403e-05
1.81402e-05
)
;
    }
    front
    {
        type            wedge;
    }
    back
    {
        type            wedge;
    }
}


// ************************************************************************* //
