/*--------------------------------*- C++ -*----------------------------------*\
| =========                 |                                                 |
| \\      /  F ield         | OpenFOAM: The Open Source CFD Toolbox           |
|  \\    /   O peration     | Version:  2.4.x                                 |
|   \\  /    A nd           | Web:      www.OpenFOAM.org                      |
|    \\/     M anipulation  |                                                 |
\*---------------------------------------------------------------------------*/
FoamFile
{
    version     2.0;
    format      ascii;
    class       volScalarField;
    location    "0.08";
    object      thermo:psi;
}
// * * * * * * * * * * * * * * * * * * * * * * * * * * * * * * * * * * * * * //

dimensions      [0 -2 2 0 0 0 0];

internalField   nonuniform List<scalar> 
1250
(
1.0013e-05
8.92413e-06
8.00508e-06
7.29002e-06
6.7083e-06
6.23104e-06
5.831e-06
5.49019e-06
5.18216e-06
4.85948e-06
4.573e-06
4.32392e-06
4.0956e-06
3.88683e-06
3.69882e-06
3.52442e-06
3.37033e-06
3.23683e-06
3.11362e-06
2.99855e-06
2.89101e-06
2.79e-06
2.69557e-06
2.61602e-06
2.53418e-06
2.45381e-06
2.37929e-06
2.31097e-06
2.24752e-06
2.18934e-06
2.13544e-06
2.08569e-06
2.04096e-06
2.00182e-06
1.96536e-06
1.93221e-06
1.90166e-06
1.87254e-06
1.84728e-06
1.82144e-06
1.79897e-06
1.78506e-06
1.76915e-06
1.77719e-06
1.94128e-06
2.62487e-06
4.34105e-06
7.74544e-06
1.0629e-05
1.15703e-05
9.93861e-06
8.75644e-06
7.83842e-06
7.13622e-06
6.57449e-06
6.11931e-06
5.74085e-06
5.41891e-06
5.08355e-06
4.77128e-06
4.49578e-06
4.25591e-06
4.0348e-06
3.83441e-06
3.65188e-06
3.48247e-06
3.33366e-06
3.20434e-06
3.08413e-06
2.97201e-06
2.86677e-06
2.768e-06
2.67572e-06
2.598e-06
2.52209e-06
2.44273e-06
2.3695e-06
2.302e-06
2.23958e-06
2.18214e-06
2.12897e-06
2.07986e-06
2.03536e-06
1.99674e-06
1.96079e-06
1.92812e-06
1.89797e-06
1.86931e-06
1.84439e-06
1.81893e-06
1.79677e-06
1.78311e-06
1.76766e-06
1.77816e-06
1.94422e-06
2.63155e-06
4.34967e-06
7.75576e-06
1.06337e-05
1.15714e-05
9.71173e-06
8.31809e-06
7.4221e-06
6.76849e-06
6.26953e-06
5.88156e-06
5.53246e-06
5.18183e-06
4.86509e-06
4.58019e-06
4.32871e-06
4.10841e-06
3.90614e-06
3.72158e-06
3.55027e-06
3.3926e-06
3.25529e-06
3.13417e-06
3.02094e-06
2.91468e-06
2.81465e-06
2.72094e-06
2.63323e-06
2.55967e-06
2.49255e-06
2.41874e-06
2.34801e-06
2.28235e-06
2.22209e-06
2.16621e-06
2.11465e-06
2.06704e-06
2.02317e-06
1.98568e-06
1.95096e-06
1.91935e-06
1.88999e-06
1.8623e-06
1.83805e-06
1.81338e-06
1.79188e-06
1.77874e-06
1.76441e-06
1.78028e-06
1.95127e-06
2.64833e-06
4.37351e-06
7.78641e-06
1.06473e-05
1.15741e-05
9.08297e-06
7.47098e-06
6.69418e-06
6.20741e-06
5.81749e-06
5.44207e-06
5.11254e-06
4.81958e-06
4.55058e-06
4.30499e-06
4.09014e-06
3.90022e-06
3.72308e-06
3.55838e-06
3.40592e-06
3.26514e-06
3.14326e-06
3.03351e-06
2.92966e-06
2.83179e-06
2.73993e-06
2.65351e-06
2.57297e-06
2.50497e-06
2.44302e-06
2.38418e-06
2.3165e-06
2.25415e-06
2.19642e-06
2.14299e-06
2.09386e-06
2.04848e-06
2.00644e-06
1.96955e-06
1.93655e-06
1.90634e-06
1.87832e-06
1.85199e-06
1.82885e-06
1.80525e-06
1.78514e-06
1.77244e-06
1.75995e-06
1.78432e-06
1.96344e-06
2.67611e-06
4.41548e-06
7.8401e-06
1.06705e-05
1.15787e-05
7.23911e-06
5.98371e-06
5.70094e-06
5.37699e-06
5.10083e-06
4.85483e-06
4.61844e-06
4.39312e-06
4.17947e-06
3.97971e-06
3.80876e-06
3.65112e-06
3.50357e-06
3.36568e-06
3.23503e-06
3.11121e-06
3.00701e-06
2.90962e-06
2.81777e-06
2.73073e-06
2.64894e-06
2.57189e-06
2.49942e-06
2.43796e-06
2.38204e-06
2.3294e-06
2.27685e-06
2.21805e-06
2.16386e-06
2.11384e-06
2.06759e-06
2.02469e-06
1.98535e-06
1.94911e-06
1.91812e-06
1.88986e-06
1.86357e-06
1.83898e-06
1.81719e-06
1.79511e-06
1.77667e-06
1.76471e-06
1.75488e-06
1.79035e-06
1.98051e-06
2.71436e-06
4.47652e-06
7.91679e-06
1.0703e-05
1.15851e-05
3.37052e-06
4.28866e-06
4.48429e-06
4.44462e-06
4.33236e-06
4.19823e-06
4.05003e-06
3.89522e-06
3.74863e-06
3.61333e-06
3.49841e-06
3.38477e-06
3.2747e-06
3.15897e-06
3.0482e-06
2.94389e-06
2.85675e-06
2.77374e-06
2.69457e-06
2.61929e-06
2.5485e-06
2.48145e-06
2.41801e-06
2.36309e-06
2.31392e-06
2.26687e-06
2.22229e-06
2.17611e-06
2.12597e-06
2.07953e-06
2.03692e-06
1.99755e-06
1.9611e-06
1.92736e-06
1.89678e-06
1.87069e-06
1.84651e-06
1.82384e-06
1.80382e-06
1.78361e-06
1.76723e-06
1.75652e-06
1.74992e-06
1.79867e-06
2.00268e-06
2.76248e-06
4.55798e-06
8.01558e-06
1.07439e-05
1.15929e-05
2.18219e-06
3.18435e-06
3.6044e-06
3.7244e-06
3.72684e-06
3.6595e-06
3.56914e-06
3.46845e-06
3.36397e-06
3.27052e-06
3.1866e-06
3.10252e-06
3.0204e-06
2.94039e-06
2.86157e-06
2.77698e-06
2.70457e-06
2.6351e-06
2.56857e-06
2.50502e-06
2.44536e-06
2.38809e-06
2.33301e-06
2.28459e-06
2.24213e-06
2.20125e-06
2.16212e-06
2.12471e-06
2.08431e-06
2.04241e-06
2.00362e-06
1.96768e-06
1.93452e-06
1.90389e-06
1.87564e-06
1.85019e-06
1.8282e-06
1.80797e-06
1.78982e-06
1.77186e-06
1.75772e-06
1.74895e-06
1.74719e-06
1.81013e-06
2.03178e-06
2.82098e-06
4.65967e-06
8.13479e-06
1.07918e-05
1.1602e-05
1.88051e-06
2.79625e-06
3.20439e-06
3.31151e-06
3.32839e-06
3.27508e-06
3.20353e-06
3.1261e-06
3.04676e-06
2.98098e-06
2.91906e-06
2.85691e-06
2.79507e-06
2.73509e-06
2.67668e-06
2.62258e-06
2.56304e-06
2.50551e-06
2.45e-06
2.39678e-06
2.34575e-06
2.29677e-06
2.24969e-06
2.20684e-06
2.17041e-06
2.13556e-06
2.10199e-06
2.0699e-06
2.03898e-06
2.00358e-06
1.96909e-06
1.93709e-06
1.90743e-06
1.87995e-06
1.8547e-06
1.83148e-06
1.80989e-06
1.79214e-06
1.77601e-06
1.76052e-06
1.74895e-06
1.74249e-06
1.74936e-06
1.8253e-06
2.06753e-06
2.88985e-06
4.78284e-06
8.2717e-06
1.08449e-05
1.1612e-05
1.93303e-06
2.87214e-06
3.20209e-06
3.19043e-06
3.11943e-06
3.04904e-06
2.96413e-06
2.88668e-06
2.81552e-06
2.76067e-06
2.70877e-06
2.65842e-06
2.60928e-06
2.56195e-06
2.51579e-06
2.47448e-06
2.43377e-06
2.38583e-06
2.33933e-06
2.29467e-06
2.25204e-06
2.21094e-06
2.17117e-06
2.13395e-06
2.10313e-06
2.07357e-06
2.0451e-06
2.01784e-06
1.9915e-06
1.96584e-06
1.9352e-06
1.90707e-06
1.88107e-06
1.85693e-06
1.8349e-06
1.8146e-06
1.79576e-06
1.77896e-06
1.76383e-06
1.75103e-06
1.74235e-06
1.7396e-06
1.7554e-06
1.84464e-06
2.11073e-06
2.96867e-06
4.92757e-06
8.42268e-06
1.09014e-05
1.16224e-05
2.64878e-06
3.68587e-06
3.74482e-06
3.38644e-06
3.14664e-06
2.97872e-06
2.85536e-06
2.75327e-06
2.66839e-06
2.59594e-06
2.5349e-06
2.48161e-06
2.43354e-06
2.39067e-06
2.35195e-06
2.32729e-06
2.30281e-06
2.26761e-06
2.23136e-06
2.1964e-06
2.16282e-06
2.13035e-06
2.09927e-06
2.06947e-06
2.04334e-06
2.01833e-06
1.99413e-06
1.97099e-06
1.94883e-06
1.92744e-06
1.90413e-06
1.87972e-06
1.85724e-06
1.83649e-06
1.81734e-06
1.8e-06
1.78405e-06
1.76997e-06
1.75708e-06
1.7465e-06
1.74116e-06
1.74297e-06
1.76636e-06
1.86845e-06
2.16322e-06
3.05725e-06
5.09221e-06
8.58316e-06
1.09592e-05
1.16331e-05
7.629e-06
5.94352e-06
5.00692e-06
4.07382e-06
3.471e-06
3.12238e-06
2.89758e-06
2.73755e-06
2.63099e-06
2.54254e-06
2.46056e-06
2.39133e-06
2.33434e-06
2.28468e-06
2.24255e-06
2.21989e-06
2.19879e-06
2.17072e-06
2.14263e-06
2.11545e-06
2.08915e-06
2.0635e-06
2.03874e-06
2.01476e-06
1.99237e-06
1.97103e-06
1.95062e-06
1.93115e-06
1.91239e-06
1.89439e-06
1.87673e-06
1.85589e-06
1.83691e-06
1.81925e-06
1.80344e-06
1.78889e-06
1.7758e-06
1.76468e-06
1.75462e-06
1.74734e-06
1.74496e-06
1.751e-06
1.78365e-06
1.89846e-06
2.22643e-06
3.15825e-06
5.28347e-06
8.75335e-06
1.1018e-05
1.16438e-05
1.0243e-05
8.25108e-06
6.90281e-06
5.50301e-06
4.36972e-06
3.63583e-06
3.18076e-06
2.90841e-06
2.71839e-06
2.58124e-06
2.48299e-06
2.40194e-06
2.33672e-06
2.28207e-06
2.2378e-06
2.19538e-06
2.15417e-06
2.11889e-06
2.0897e-06
2.06294e-06
2.03819e-06
2.01473e-06
1.99254e-06
1.9715e-06
1.95183e-06
1.93339e-06
1.91583e-06
1.89912e-06
1.88341e-06
1.86853e-06
1.85434e-06
1.83743e-06
1.82186e-06
1.80747e-06
1.79476e-06
1.78307e-06
1.77322e-06
1.76486e-06
1.75776e-06
1.75422e-06
1.75524e-06
1.76668e-06
1.81047e-06
1.93994e-06
2.30442e-06
3.28275e-06
5.51801e-06
8.95537e-06
1.1082e-05
1.16554e-05
1.11323e-05
9.76982e-06
8.62703e-06
7.35338e-06
6.01742e-06
4.85668e-06
3.99036e-06
3.41936e-06
3.05319e-06
2.81048e-06
2.6385e-06
2.50508e-06
2.40461e-06
2.3258e-06
2.26194e-06
2.20801e-06
2.16199e-06
2.12191e-06
2.08624e-06
2.05384e-06
2.02447e-06
1.99761e-06
1.9726e-06
1.94933e-06
1.9297e-06
1.91249e-06
1.89647e-06
1.88157e-06
1.86776e-06
1.85501e-06
1.84303e-06
1.82892e-06
1.81633e-06
1.80516e-06
1.79526e-06
1.78685e-06
1.77984e-06
1.77456e-06
1.77082e-06
1.77116e-06
1.77601e-06
1.79409e-06
1.85165e-06
1.99927e-06
2.41012e-06
3.44854e-06
5.82529e-06
9.22331e-06
1.11553e-05
1.16689e-05
1.14453e-05
1.06083e-05
9.74724e-06
8.83826e-06
7.78866e-06
6.67459e-06
5.59096e-06
4.65432e-06
3.94198e-06
3.4235e-06
3.06817e-06
2.81675e-06
2.63459e-06
2.49977e-06
2.3932e-06
2.30736e-06
2.23855e-06
2.18006e-06
2.13066e-06
2.08768e-06
2.05028e-06
2.01705e-06
1.98724e-06
1.96047e-06
1.93883e-06
1.92032e-06
1.90375e-06
1.8888e-06
1.87538e-06
1.86348e-06
1.85063e-06
1.83883e-06
1.82873e-06
1.81996e-06
1.8127e-06
1.8069e-06
1.80266e-06
1.80006e-06
1.80024e-06
1.80415e-06
1.81373e-06
1.84029e-06
1.91364e-06
2.08798e-06
2.55768e-06
3.67879e-06
6.23653e-06
9.54378e-06
1.12394e-05
1.16847e-05
1.15798e-05
1.10423e-05
1.0451e-05
9.78409e-06
9.06185e-06
8.25674e-06
7.38873e-06
6.48038e-06
5.59084e-06
4.79269e-06
4.13389e-06
3.63272e-06
3.26546e-06
2.98566e-06
2.77543e-06
2.61405e-06
2.48732e-06
2.38487e-06
2.29929e-06
2.22584e-06
2.16552e-06
2.11409e-06
2.06993e-06
2.03283e-06
2.004e-06
1.97894e-06
1.95721e-06
1.93853e-06
1.92059e-06
1.90501e-06
1.89169e-06
1.88056e-06
1.87143e-06
1.86383e-06
1.85838e-06
1.85436e-06
1.85199e-06
1.85207e-06
1.85555e-06
1.8629e-06
1.87835e-06
1.91624e-06
2.00743e-06
2.22201e-06
2.76545e-06
4.01573e-06
6.78975e-06
9.91669e-06
1.13331e-05
1.17027e-05
1.16505e-05
1.12862e-05
1.08747e-05
1.04132e-05
9.8912e-06
9.30489e-06
8.70627e-06
8.03138e-06
7.32578e-06
6.5934e-06
5.87264e-06
5.19353e-06
4.58043e-06
4.0614e-06
3.64245e-06
3.31368e-06
3.0561e-06
2.85123e-06
2.68816e-06
2.55611e-06
2.4478e-06
2.35737e-06
2.28263e-06
2.22091e-06
2.16932e-06
2.12483e-06
2.08764e-06
2.05641e-06
2.03113e-06
2.00979e-06
1.9923e-06
1.97815e-06
1.96673e-06
1.95762e-06
1.95126e-06
1.94643e-06
1.94409e-06
1.94502e-06
1.9506e-06
1.96141e-06
1.98442e-06
2.03703e-06
2.15075e-06
2.41607e-06
3.06448e-06
4.52824e-06
7.50929e-06
1.03239e-05
1.14324e-05
1.17222e-05
1.16938e-05
1.14368e-05
1.11438e-05
1.08151e-05
1.04475e-05
1.00365e-05
9.57743e-06
9.08618e-06
8.5876e-06
8.0411e-06
7.48014e-06
6.91847e-06
6.33588e-06
5.75708e-06
5.2026e-06
4.68903e-06
4.23319e-06
3.84067e-06
3.51374e-06
3.24659e-06
3.03069e-06
2.85369e-06
2.7088e-06
2.59185e-06
2.49662e-06
2.41938e-06
2.35623e-06
2.30407e-06
2.26066e-06
2.22503e-06
2.19512e-06
2.17046e-06
2.14988e-06
2.13317e-06
2.12022e-06
2.11031e-06
2.10374e-06
2.10214e-06
2.10719e-06
2.12159e-06
2.15236e-06
2.21939e-06
2.36011e-06
2.71217e-06
3.51324e-06
5.32458e-06
8.4037e-06
1.07298e-05
1.15299e-05
1.1742e-05
1.17231e-05
1.15377e-05
1.13258e-05
1.10873e-05
1.08212e-05
1.0526e-05
1.01994e-05
9.83952e-06
9.4446e-06
9.03261e-06
8.64209e-06
8.22124e-06
7.77147e-06
7.30675e-06
6.83722e-06
6.35275e-06
5.87086e-06
5.39925e-06
4.95138e-06
4.53704e-06
4.16584e-06
3.84219e-06
3.56717e-06
3.34048e-06
3.15544e-06
3.00349e-06
2.87879e-06
2.77544e-06
2.68911e-06
2.61756e-06
2.55742e-06
2.50648e-06
2.46345e-06
2.4268e-06
2.39655e-06
2.3727e-06
2.35443e-06
2.34422e-06
2.34739e-06
2.36505e-06
2.40452e-06
2.49201e-06
2.69176e-06
3.17906e-06
4.229e-06
6.51216e-06
9.40802e-06
1.10908e-05
1.16176e-05
1.17605e-05
1.17444e-05
1.16097e-05
1.14554e-05
1.1281e-05
1.10858e-05
1.08691e-05
1.06298e-05
1.0367e-05
1.00864e-05
9.78698e-06
9.46469e-06
9.11921e-06
8.7815e-06
8.43785e-06
8.07138e-06
7.68385e-06
7.2906e-06
6.89879e-06
6.48774e-06
6.06891e-06
5.65284e-06
5.25058e-06
4.87138e-06
4.52853e-06
4.22973e-06
3.97249e-06
3.75423e-06
3.56766e-06
3.40783e-06
3.27197e-06
3.15523e-06
3.05427e-06
2.96791e-06
2.89349e-06
2.83099e-06
2.77945e-06
2.74074e-06
2.71718e-06
2.71626e-06
2.73995e-06
2.79625e-06
2.92944e-06
3.24951e-06
3.95742e-06
5.44389e-06
8.04809e-06
1.03627e-05
1.1376e-05
1.16889e-05
1.17761e-05
1.17606e-05
1.16636e-05
1.15518e-05
1.14245e-05
1.12811e-05
1.11208e-05
1.09449e-05
1.07549e-05
1.05489e-05
1.03264e-05
1.00869e-05
9.8299e-06
9.55437e-06
9.25957e-06
8.94442e-06
8.65752e-06
8.36534e-06
8.0497e-06
7.71041e-06
7.35006e-06
6.97801e-06
6.59547e-06
6.20989e-06
5.82944e-06
5.46822e-06
5.13779e-06
4.8404e-06
4.57444e-06
4.33731e-06
4.13006e-06
3.9486e-06
3.79161e-06
3.65484e-06
3.53884e-06
3.4412e-06
3.36431e-06
3.30789e-06
3.2778e-06
3.28366e-06
3.32465e-06
3.42953e-06
3.68036e-06
4.228e-06
5.32579e-06
7.31758e-06
9.63669e-06
1.10486e-05
1.15757e-05
1.17406e-05
1.17878e-05
1.17733e-05
1.17052e-05
1.1626e-05
1.15351e-05
1.1432e-05
1.13164e-05
1.11882e-05
1.10472e-05
1.08935e-05
1.07269e-05
1.05469e-05
1.03531e-05
1.01448e-05
9.92098e-06
9.69456e-06
9.4552e-06
9.19764e-06
8.91927e-06
8.64447e-06
8.35219e-06
8.03399e-06
7.69918e-06
7.35272e-06
6.9938e-06
6.63212e-06
6.28167e-06
5.95408e-06
5.6507e-06
5.37335e-06
5.12296e-06
4.89879e-06
4.70039e-06
4.52812e-06
4.38091e-06
4.26355e-06
4.18024e-06
4.12921e-06
4.12323e-06
4.16501e-06
4.27511e-06
4.53235e-06
5.0442e-06
5.97032e-06
7.49795e-06
9.38829e-06
1.08154e-05
1.14616e-05
1.16981e-05
1.17733e-05
1.17954e-05
1.17837e-05
1.1739e-05
1.16857e-05
1.16229e-05
1.15503e-05
1.14676e-05
1.13748e-05
1.12718e-05
1.11586e-05
1.10351e-05
1.09013e-05
1.07565e-05
1.0604e-05
1.04477e-05
1.02806e-05
1.01006e-05
9.90491e-06
9.69043e-06
9.45318e-06
9.19627e-06
8.92178e-06
8.6392e-06
8.33632e-06
8.01237e-06
7.67617e-06
7.34106e-06
7.0212e-06
6.72139e-06
6.44611e-06
6.19757e-06
5.97695e-06
5.78512e-06
5.62313e-06
5.49324e-06
5.39774e-06
5.34801e-06
5.36077e-06
5.42277e-06
5.58562e-06
5.90672e-06
6.43943e-06
7.25796e-06
8.41748e-06
9.77909e-06
1.08524e-05
1.14279e-05
1.1673e-05
1.17623e-05
1.1791e-05
1.17997e-05
1.17922e-05
1.17657e-05
1.17321e-05
1.16911e-05
1.16422e-05
1.15854e-05
1.15206e-05
1.14479e-05
1.13674e-05
1.1279e-05
1.11859e-05
1.10876e-05
1.09825e-05
1.08704e-05
1.07501e-05
1.06198e-05
1.04769e-05
1.03211e-05
1.0156e-05
9.96839e-06
9.75417e-06
9.51161e-06
9.24332e-06
8.95484e-06
8.66444e-06
8.37449e-06
8.09637e-06
7.83646e-06
7.60089e-06
7.39422e-06
7.2199e-06
7.08008e-06
6.97888e-06
6.92329e-06
6.91763e-06
6.95537e-06
7.08006e-06
7.31292e-06
7.67356e-06
8.17651e-06
8.82839e-06
9.68235e-06
1.05084e-05
1.11345e-05
1.15077e-05
1.16889e-05
1.17634e-05
1.17903e-05
1.1799e-05
1.18016e-05
1.1799e-05
1.17869e-05
1.17684e-05
1.17443e-05
1.17146e-05
1.16793e-05
1.16391e-05
1.15937e-05
1.15432e-05
1.14878e-05
1.14277e-05
1.13627e-05
1.12931e-05
1.12185e-05
1.11387e-05
1.10566e-05
1.09683e-05
1.08697e-05
1.07578e-05
1.06284e-05
1.04773e-05
1.03029e-05
1.0107e-05
9.89476e-06
9.67231e-06
9.44775e-06
9.23324e-06
9.0359e-06
8.86402e-06
8.7299e-06
8.63324e-06
8.57952e-06
8.56844e-06
8.59538e-06
8.69438e-06
8.86556e-06
9.12782e-06
9.47549e-06
9.90429e-06
1.03651e-05
1.08135e-05
1.11953e-05
1.14744e-05
1.16472e-05
1.17376e-05
1.17782e-05
1.17942e-05
1.17999e-05
1.18017e-05
1.18023e-05
1.18023e-05
1.17996e-05
1.17941e-05
1.17859e-05
1.17747e-05
1.17605e-05
1.17434e-05
1.17232e-05
1.16999e-05
1.16737e-05
1.16448e-05
1.1614e-05
1.15818e-05
1.15472e-05
1.15103e-05
1.1471e-05
1.14279e-05
1.13793e-05
1.13236e-05
1.12593e-05
1.11853e-05
1.11016e-05
1.10097e-05
1.09128e-05
1.08145e-05
1.07195e-05
1.06343e-05
1.05639e-05
1.05133e-05
1.04871e-05
1.04889e-05
1.05214e-05
1.05853e-05
1.06795e-05
1.08027e-05
1.09474e-05
1.11036e-05
1.12607e-05
1.14092e-05
1.15355e-05
1.16347e-05
1.17053e-05
1.17506e-05
1.17792e-05
1.17947e-05
1.17999e-05
1.18015e-05
1.18022e-05
1.18024e-05
1.18025e-05
)
;

boundaryField
{
    AXIS
    {
        type            empty;
    }
    OUTLET
    {
        type            calculated;
        value           nonuniform List<scalar> 
25
(
1.15703e-05
1.15714e-05
1.15741e-05
1.15787e-05
1.15851e-05
1.15929e-05
1.1602e-05
1.1612e-05
1.16224e-05
1.16331e-05
1.16438e-05
1.16554e-05
1.16689e-05
1.16847e-05
1.17027e-05
1.17222e-05
1.1742e-05
1.17605e-05
1.17761e-05
1.17878e-05
1.17954e-05
1.17997e-05
1.18016e-05
1.18023e-05
1.18025e-05
)
;
    }
    COFLOW
    {
        type            calculated;
        value           uniform 1.18025e-05;
    }
    PILOT
    {
        type            calculated;
        value           uniform 1.56801e-06;
    }
    FUEL
    {
        type            calculated;
        value           uniform 1.04958e-05;
    }
    WALL
    {
        type            calculated;
        value           nonuniform List<scalar> 
50
(
1.18023e-05
1.17996e-05
1.17941e-05
1.17859e-05
1.17747e-05
1.17605e-05
1.17434e-05
1.17232e-05
1.16999e-05
1.16737e-05
1.16448e-05
1.1614e-05
1.15818e-05
1.15472e-05
1.15103e-05
1.1471e-05
1.14279e-05
1.13793e-05
1.13236e-05
1.12593e-05
1.11853e-05
1.11016e-05
1.10097e-05
1.09128e-05
1.08145e-05
1.07195e-05
1.06343e-05
1.05639e-05
1.05133e-05
1.04871e-05
1.04889e-05
1.05214e-05
1.05853e-05
1.06795e-05
1.08027e-05
1.09474e-05
1.11036e-05
1.12607e-05
1.14092e-05
1.15355e-05
1.16347e-05
1.17053e-05
1.17506e-05
1.17792e-05
1.17947e-05
1.17999e-05
1.18015e-05
1.18022e-05
1.18024e-05
1.18025e-05
)
;
    }
    front
    {
        type            wedge;
    }
    back
    {
        type            wedge;
    }
}


// ************************************************************************* //
