/*--------------------------------*- C++ -*----------------------------------*\
| =========                 |                                                 |
| \\      /  F ield         | OpenFOAM: The Open Source CFD Toolbox           |
|  \\    /   O peration     | Version:  2.4.x                                 |
|   \\  /    A nd           | Web:      www.OpenFOAM.org                      |
|    \\/     M anipulation  |                                                 |
\*---------------------------------------------------------------------------*/
FoamFile
{
    version     2.0;
    format      ascii;
    class       volScalarField;
    location    "0.08";
    object      thermo:alpha;
}
// * * * * * * * * * * * * * * * * * * * * * * * * * * * * * * * * * * * * * //

dimensions      [1 -1 -1 0 0 0 0];

internalField   nonuniform List<scalar> 
1250
(
2.72204e-05
2.99463e-05
3.26826e-05
3.51689e-05
3.74832e-05
3.96233e-05
4.16193e-05
4.34913e-05
4.53351e-05
4.74238e-05
4.94545e-05
5.13796e-05
5.32912e-05
5.51797e-05
5.70122e-05
5.88366e-05
6.0562e-05
6.21533e-05
6.37102e-05
6.52517e-05
6.67745e-05
6.82839e-05
6.97714e-05
7.10911e-05
7.24969e-05
7.39369e-05
7.53379e-05
7.66847e-05
7.79929e-05
7.92467e-05
8.04582e-05
8.16237e-05
8.2716e-05
8.37121e-05
8.46751e-05
8.55827e-05
8.64488e-05
8.73066e-05
8.80745e-05
8.88879e-05
8.96273e-05
9.01303e-05
9.0822e-05
9.12125e-05
8.80332e-05
7.49462e-05
5.53363e-05
3.69178e-05
2.87042e-05
2.67253e-05
2.73914e-05
3.04111e-05
3.32303e-05
3.57535e-05
3.80628e-05
4.01678e-05
4.21096e-05
4.39211e-05
4.59613e-05
4.8039e-05
5.00437e-05
5.19435e-05
5.38371e-05
5.56889e-05
5.75028e-05
5.93075e-05
6.10023e-05
6.25682e-05
6.41099e-05
6.56332e-05
6.71428e-05
6.86371e-05
7.01076e-05
7.14111e-05
7.27336e-05
7.41648e-05
7.55506e-05
7.68889e-05
7.81829e-05
7.94271e-05
8.06281e-05
8.17839e-05
8.28748e-05
8.38619e-05
8.48154e-05
8.57133e-05
8.65716e-05
8.74188e-05
8.81793e-05
8.89834e-05
8.97148e-05
9.02111e-05
9.08906e-05
9.12087e-05
8.79719e-05
7.48385e-05
5.52661e-05
3.68805e-05
2.86937e-05
2.67233e-05
2.7925e-05
3.16925e-05
3.46796e-05
3.72352e-05
3.94598e-05
4.139e-05
4.32911e-05
4.53645e-05
4.74176e-05
4.94353e-05
5.13746e-05
5.3216e-05
5.50374e-05
5.68233e-05
5.85992e-05
6.03475e-05
6.19702e-05
6.34873e-05
6.49885e-05
6.64761e-05
6.79522e-05
6.94084e-05
7.08415e-05
7.21044e-05
7.33071e-05
7.46644e-05
7.60215e-05
7.73397e-05
7.86047e-05
7.98287e-05
8.10061e-05
8.2138e-05
8.3223e-05
8.41902e-05
8.51196e-05
8.59962e-05
8.68387e-05
8.76642e-05
8.84093e-05
8.9195e-05
8.99089e-05
9.03916e-05
9.10412e-05
9.12016e-05
8.78248e-05
7.45694e-05
5.50726e-05
3.67701e-05
2.86633e-05
2.67179e-05
2.95078e-05
3.44852e-05
3.75435e-05
3.97734e-05
4.17587e-05
4.38369e-05
4.5837e-05
4.77743e-05
4.9705e-05
5.16147e-05
5.34225e-05
5.51421e-05
5.68582e-05
5.85631e-05
6.02465e-05
6.1902e-05
6.34212e-05
6.48686e-05
6.63121e-05
6.7744e-05
6.91572e-05
7.05533e-05
7.1918e-05
7.31253e-05
7.42713e-05
7.54016e-05
7.6726e-05
7.80016e-05
7.92346e-05
8.04249e-05
8.15647e-05
8.26597e-05
8.37137e-05
8.46763e-05
8.55719e-05
8.642e-05
8.72346e-05
8.8029e-05
8.87481e-05
8.95084e-05
9.01843e-05
9.0656e-05
9.12559e-05
9.11672e-05
8.75668e-05
7.41285e-05
5.47352e-05
3.65783e-05
2.86113e-05
2.67088e-05
3.52913e-05
4.07763e-05
4.23759e-05
4.42552e-05
4.59783e-05
4.76179e-05
4.92989e-05
5.10126e-05
5.27527e-05
5.44971e-05
5.61006e-05
5.76755e-05
5.92431e-05
6.07987e-05
6.23569e-05
6.39169e-05
6.53089e-05
6.6677e-05
6.80314e-05
6.93771e-05
7.07023e-05
7.20083e-05
7.32928e-05
7.44311e-05
7.55073e-05
7.65578e-05
7.76384e-05
7.88705e-05
8.00546e-05
8.11925e-05
8.22871e-05
8.33415e-05
8.43457e-05
8.53049e-05
8.61604e-05
8.69675e-05
8.77445e-05
8.84977e-05
8.91851e-05
8.99078e-05
9.05376e-05
9.099e-05
9.15166e-05
9.11018e-05
8.72045e-05
7.35316e-05
5.4252e-05
3.63075e-05
2.85389e-05
2.66964e-05
6.05601e-05
5.18587e-05
5.04117e-05
5.07575e-05
5.16603e-05
5.27642e-05
5.40359e-05
5.54346e-05
5.68397e-05
5.82151e-05
5.94505e-05
6.0727e-05
6.20223e-05
6.34451e-05
6.48816e-05
6.63083e-05
6.75643e-05
6.88159e-05
7.00632e-05
7.1302e-05
7.2518e-05
7.37185e-05
7.49018e-05
7.59682e-05
7.69585e-05
7.79384e-05
7.88978e-05
7.99144e-05
8.10389e-05
8.21221e-05
8.31545e-05
8.41441e-05
8.50935e-05
8.6004e-05
8.68601e-05
8.76198e-05
8.8349e-05
8.9056e-05
8.96993e-05
9.03747e-05
9.09458e-05
9.13644e-05
9.18003e-05
9.09944e-05
8.67348e-05
7.27969e-05
5.36207e-05
3.59644e-05
2.84484e-05
2.6681e-05
8.09685e-05
6.37721e-05
5.8838e-05
5.75405e-05
5.7466e-05
5.81007e-05
5.90017e-05
6.00575e-05
6.12097e-05
6.22901e-05
6.33045e-05
6.43669e-05
6.54508e-05
6.65518e-05
6.76813e-05
6.89378e-05
7.00654e-05
7.1192e-05
7.23153e-05
7.34313e-05
7.45215e-05
7.56075e-05
7.66912e-05
7.76795e-05
7.85771e-05
7.94681e-05
8.03473e-05
8.12136e-05
8.21622e-05
8.31663e-05
8.41303e-05
8.50553e-05
8.59392e-05
8.67838e-05
8.75904e-05
8.83423e-05
8.90202e-05
8.9665e-05
9.02608e-05
9.08762e-05
9.13817e-05
9.17455e-05
9.2041e-05
9.08185e-05
8.6117e-05
7.19263e-05
5.28538e-05
3.55587e-05
2.8343e-05
2.66632e-05
8.9866e-05
7.02874e-05
6.42773e-05
6.27256e-05
6.23527e-05
6.28581e-05
6.36282e-05
6.45247e-05
6.54992e-05
6.63429e-05
6.71713e-05
6.80388e-05
6.89379e-05
6.98439e-05
7.07602e-05
7.16443e-05
7.26405e-05
7.3638e-05
7.46367e-05
7.56295e-05
7.66159e-05
7.75962e-05
7.8572e-05
7.9491e-05
8.0299e-05
8.10942e-05
8.18817e-05
8.26558e-05
8.34225e-05
8.43031e-05
8.51833e-05
8.60281e-05
8.68371e-05
8.7612e-05
8.83488e-05
8.90482e-05
8.97221e-05
9.03016e-05
9.08439e-05
9.13904e-05
9.18185e-05
9.21159e-05
9.21553e-05
9.05568e-05
8.53638e-05
7.09314e-05
5.19547e-05
3.51034e-05
2.82268e-05
2.66436e-05
8.91339e-05
7.03313e-05
6.53137e-05
6.50521e-05
6.56542e-05
6.63548e-05
6.73353e-05
6.8293e-05
6.92269e-05
6.9974e-05
7.07144e-05
7.14667e-05
7.22328e-05
7.29999e-05
7.37766e-05
7.44985e-05
7.52306e-05
7.61123e-05
7.6999e-05
7.78798e-05
7.87486e-05
7.96144e-05
8.04792e-05
8.13149e-05
8.20291e-05
8.27326e-05
8.34281e-05
8.41115e-05
8.4789e-05
8.54651e-05
8.62668e-05
8.70275e-05
8.77534e-05
8.84497e-05
8.91064e-05
8.97319e-05
9.03327e-05
9.08868e-05
9.14036e-05
9.18713e-05
9.22105e-05
9.2398e-05
9.21707e-05
9.01938e-05
8.4464e-05
6.98308e-05
5.09379e-05
3.4614e-05
2.81043e-05
2.66231e-05
7.48918e-05
6.11049e-05
6.00976e-05
6.35293e-05
6.60828e-05
6.80212e-05
6.95385e-05
7.08812e-05
7.20661e-05
7.31301e-05
7.40602e-05
7.49064e-05
7.56971e-05
7.64269e-05
7.71153e-05
7.75743e-05
7.80466e-05
7.87358e-05
7.94692e-05
8.01988e-05
8.09218e-05
8.16437e-05
8.23557e-05
8.3058e-05
8.3686e-05
8.43023e-05
8.49133e-05
8.55127e-05
8.61011e-05
8.66833e-05
8.73203e-05
8.79948e-05
8.86356e-05
8.92467e-05
8.9829e-05
9.03747e-05
9.0895e-05
9.13704e-05
9.18218e-05
9.2221e-05
9.2455e-05
9.25055e-05
9.20536e-05
8.97203e-05
8.33898e-05
6.86395e-05
4.983e-05
3.41081e-05
2.79801e-05
2.66024e-05
3.73456e-05
4.47365e-05
5.0182e-05
5.71805e-05
6.2918e-05
6.68066e-05
6.96134e-05
7.17825e-05
7.33008e-05
7.46394e-05
7.59714e-05
7.71373e-05
7.81288e-05
7.90256e-05
7.98128e-05
8.0226e-05
8.0626e-05
8.11861e-05
8.17681e-05
8.23502e-05
8.29309e-05
8.35154e-05
8.40956e-05
8.46727e-05
8.52247e-05
8.57634e-05
8.62911e-05
8.6808e-05
8.73176e-05
8.78189e-05
8.83209e-05
8.89067e-05
8.94575e-05
8.99867e-05
9.04767e-05
9.09437e-05
9.13803e-05
9.17669e-05
9.21331e-05
9.2427e-05
9.25668e-05
9.24902e-05
9.17677e-05
8.90981e-05
8.21288e-05
6.73361e-05
4.86034e-05
3.35867e-05
2.78546e-05
2.65815e-05
2.95942e-05
3.51477e-05
4.01601e-05
4.71151e-05
5.48316e-05
6.14274e-05
6.6476e-05
6.98981e-05
7.25569e-05
7.46219e-05
7.61783e-05
7.75308e-05
7.8664e-05
7.96512e-05
8.04745e-05
8.13005e-05
8.21277e-05
8.28428e-05
8.34448e-05
8.40142e-05
8.45575e-05
8.50895e-05
8.56078e-05
8.61133e-05
8.66013e-05
8.70712e-05
8.75294e-05
8.79777e-05
8.84097e-05
8.88291e-05
8.92401e-05
8.97222e-05
9.01794e-05
9.06158e-05
9.10159e-05
9.13977e-05
9.17352e-05
9.20358e-05
9.23088e-05
9.24816e-05
9.25138e-05
9.22779e-05
9.12379e-05
8.82106e-05
8.06242e-05
6.58042e-05
4.71808e-05
3.29872e-05
2.77193e-05
2.65588e-05
2.76118e-05
3.0752e-05
3.39429e-05
3.83352e-05
4.43187e-05
5.12857e-05
5.81653e-05
6.39062e-05
6.83078e-05
7.15962e-05
7.415e-05
7.6288e-05
7.79917e-05
7.93878e-05
8.05607e-05
8.15868e-05
8.24886e-05
8.32974e-05
8.40382e-05
8.47302e-05
8.5375e-05
8.59815e-05
8.65617e-05
8.71167e-05
8.75977e-05
8.80312e-05
8.84448e-05
8.88405e-05
8.9216e-05
8.95719e-05
8.99161e-05
9.03153e-05
9.06847e-05
9.10243e-05
9.13376e-05
9.16169e-05
9.18634e-05
9.20647e-05
9.22298e-05
9.22752e-05
9.21892e-05
9.17629e-05
9.03503e-05
8.69294e-05
7.86728e-05
6.38812e-05
4.54402e-05
3.22228e-05
2.75656e-05
2.65326e-05
2.69721e-05
2.87447e-05
3.0807e-05
3.33078e-05
3.67242e-05
4.11802e-05
4.6677e-05
5.27921e-05
5.87034e-05
6.39997e-05
6.83014e-05
7.17586e-05
7.45191e-05
7.67222e-05
7.85716e-05
8.01385e-05
8.14444e-05
8.25963e-05
8.36001e-05
8.44995e-05
8.53037e-05
8.60381e-05
8.67143e-05
8.73371e-05
8.78526e-05
8.83036e-05
8.87168e-05
8.90994e-05
8.94508e-05
8.97709e-05
9.01173e-05
9.04417e-05
9.07306e-05
9.09908e-05
9.12171e-05
9.14099e-05
9.15631e-05
9.16753e-05
9.17139e-05
9.16445e-05
9.14203e-05
9.07645e-05
8.89651e-05
8.50364e-05
7.61135e-05
6.14121e-05
4.33032e-05
3.13515e-05
2.73915e-05
2.6502e-05
2.67058e-05
2.77993e-05
2.91019e-05
3.07144e-05
3.26614e-05
3.51282e-05
3.82229e-05
4.20873e-05
4.67074e-05
5.18297e-05
5.70371e-05
6.18265e-05
6.59567e-05
6.95459e-05
7.25483e-05
7.50625e-05
7.7181e-05
7.89964e-05
8.05911e-05
8.20226e-05
8.32422e-05
8.43183e-05
8.52707e-05
8.60929e-05
8.67454e-05
8.73254e-05
8.78383e-05
8.82888e-05
8.87252e-05
8.91116e-05
8.94495e-05
8.97387e-05
8.99832e-05
9.0193e-05
9.03529e-05
9.04792e-05
9.05643e-05
9.05869e-05
9.05202e-05
9.03484e-05
8.99683e-05
8.90354e-05
8.68742e-05
8.22982e-05
7.28105e-05
5.81553e-05
4.07255e-05
3.03919e-05
2.71999e-05
2.64672e-05
2.65677e-05
2.72932e-05
2.81578e-05
2.919e-05
3.04462e-05
3.19842e-05
3.37142e-05
3.58922e-05
3.848e-05
4.1582e-05
4.51596e-05
4.91486e-05
5.34304e-05
5.77251e-05
6.17842e-05
6.54537e-05
6.86973e-05
7.15515e-05
7.40255e-05
7.6179e-05
7.80565e-05
7.97089e-05
8.11372e-05
8.23621e-05
8.34191e-05
8.43573e-05
8.51615e-05
8.58525e-05
8.64217e-05
8.69112e-05
8.73187e-05
8.76539e-05
8.79292e-05
8.8153e-05
8.83144e-05
8.84399e-05
8.85059e-05
8.84918e-05
8.83624e-05
8.81035e-05
8.75513e-05
8.63203e-05
8.38169e-05
7.8632e-05
6.85861e-05
5.38551e-05
3.77931e-05
2.94051e-05
2.69994e-05
2.64295e-05
2.6484e-05
2.69891e-05
2.7587e-05
2.8288e-05
2.91121e-05
3.00884e-05
3.12544e-05
3.26005e-05
3.40843e-05
3.58667e-05
3.78926e-05
4.01572e-05
4.28061e-05
4.58072e-05
4.91113e-05
5.26426e-05
5.62575e-05
5.98297e-05
6.32153e-05
6.63274e-05
6.91097e-05
7.15988e-05
7.37966e-05
7.56878e-05
7.73136e-05
7.86932e-05
7.98644e-05
8.08632e-05
8.17171e-05
8.24336e-05
8.3047e-05
8.3561e-05
8.39967e-05
8.43544e-05
8.46346e-05
8.48506e-05
8.49933e-05
8.5026e-05
8.49094e-05
8.45845e-05
8.3907e-05
8.24872e-05
7.97165e-05
7.36775e-05
6.31839e-05
4.83495e-05
3.46752e-05
2.84795e-05
2.68051e-05
2.63914e-05
2.64275e-05
2.67888e-05
2.72132e-05
2.77059e-05
2.82754e-05
2.89336e-05
2.96959e-05
3.05808e-05
3.1611e-05
3.27578e-05
3.39201e-05
3.52644e-05
3.68191e-05
3.85714e-05
4.05157e-05
4.27354e-05
4.51978e-05
4.79008e-05
5.07922e-05
5.38113e-05
5.68596e-05
5.98412e-05
6.26638e-05
6.52312e-05
6.75137e-05
6.95291e-05
7.12888e-05
7.28269e-05
7.4172e-05
7.5331e-05
7.63376e-05
7.72149e-05
7.79741e-05
7.86344e-05
7.91885e-05
7.96301e-05
7.997e-05
8.01572e-05
8.00856e-05
7.9736e-05
7.89809e-05
7.73866e-05
7.40419e-05
6.7141e-05
5.62846e-05
4.19799e-05
3.17152e-05
2.77008e-05
2.66326e-05
2.63559e-05
2.63866e-05
2.66475e-05
2.69523e-05
2.73048e-05
2.77094e-05
2.81721e-05
2.86999e-05
2.93015e-05
2.99703e-05
3.07162e-05
3.15592e-05
3.25127e-05
3.34993e-05
3.45637e-05
3.57727e-05
3.71431e-05
3.8641e-05
4.02551e-05
4.20978e-05
4.41563e-05
4.6412e-05
4.88276e-05
5.13546e-05
5.38872e-05
5.63213e-05
5.86158e-05
6.07304e-05
6.26786e-05
6.44652e-05
6.60794e-05
6.75412e-05
6.8866e-05
7.00468e-05
7.11017e-05
7.2015e-05
7.27873e-05
7.33776e-05
7.37384e-05
7.37428e-05
7.33602e-05
7.24842e-05
7.05244e-05
6.62921e-05
5.87126e-05
4.7624e-05
3.58534e-05
2.93143e-05
2.71128e-05
2.64939e-05
2.6326e-05
2.63556e-05
2.65427e-05
2.67613e-05
2.70144e-05
2.7305e-05
2.76367e-05
2.80094e-05
2.84225e-05
2.88837e-05
2.93976e-05
2.99702e-05
3.06087e-05
3.13221e-05
3.21211e-05
3.30191e-05
3.38787e-05
3.47988e-05
3.58481e-05
3.70464e-05
3.8407e-05
3.99185e-05
4.15998e-05
4.34426e-05
4.54291e-05
4.74928e-05
4.95557e-05
5.15775e-05
5.35381e-05
5.54244e-05
5.71939e-05
5.88466e-05
6.03636e-05
6.17579e-05
6.29985e-05
6.40871e-05
6.49746e-05
6.56422e-05
6.60014e-05
6.59235e-05
6.54221e-05
6.41894e-05
6.14571e-05
5.63146e-05
4.83471e-05
3.85337e-05
3.11071e-05
2.77896e-05
2.67147e-05
2.63941e-05
2.63037e-05
2.63313e-05
2.64622e-05
2.66159e-05
2.67945e-05
2.69997e-05
2.72333e-05
2.74967e-05
2.77918e-05
2.81205e-05
2.84852e-05
2.8889e-05
2.9336e-05
2.98312e-05
3.03811e-05
3.09566e-05
3.15877e-05
3.22943e-05
3.30924e-05
3.39181e-05
3.48407e-05
3.59015e-05
3.70864e-05
3.83943e-05
3.98484e-05
4.14282e-05
4.30822e-05
4.47529e-05
4.64215e-05
4.80615e-05
4.96482e-05
5.11637e-05
5.25879e-05
5.38944e-05
5.50666e-05
5.60399e-05
5.67519e-05
5.71967e-05
5.72468e-05
5.6877e-05
5.59312e-05
5.38511e-05
5.01648e-05
4.46689e-05
3.78372e-05
3.17686e-05
2.82912e-05
2.69408e-05
2.6476e-05
2.63313e-05
2.6289e-05
2.63114e-05
2.63971e-05
2.65e-05
2.66221e-05
2.67646e-05
2.69286e-05
2.7115e-05
2.73247e-05
2.75586e-05
2.78179e-05
2.81044e-05
2.84205e-05
2.87606e-05
2.9117e-05
2.95071e-05
2.99385e-05
3.0421e-05
3.09669e-05
3.15925e-05
3.22971e-05
3.30828e-05
3.39309e-05
3.48876e-05
3.59701e-05
3.71644e-05
3.84341e-05
3.97286e-05
4.10227e-05
4.22867e-05
4.34966e-05
4.46307e-05
4.56667e-05
4.65804e-05
4.73407e-05
4.79166e-05
4.82224e-05
4.81432e-05
4.77645e-05
4.67996e-05
4.50092e-05
4.23256e-05
3.87706e-05
3.46311e-05
3.07394e-05
2.82105e-05
2.70084e-05
2.65247e-05
2.63524e-05
2.62974e-05
2.62809e-05
2.62952e-05
2.63459e-05
2.64103e-05
2.64896e-05
2.65846e-05
2.66957e-05
2.68234e-05
2.69681e-05
2.71302e-05
2.73103e-05
2.75021e-05
2.77075e-05
2.79301e-05
2.81714e-05
2.84346e-05
2.87248e-05
2.90494e-05
2.94111e-05
2.98035e-05
3.0261e-05
3.07999e-05
3.14324e-05
3.21612e-05
3.29815e-05
3.38492e-05
3.47606e-05
3.56803e-05
3.65833e-05
3.74411e-05
3.82266e-05
3.8915e-05
3.94856e-05
3.99094e-05
4.01468e-05
4.01726e-05
4.00135e-05
3.94924e-05
3.85527e-05
3.71811e-05
3.54191e-05
3.33613e-05
3.09881e-05
2.89774e-05
2.76091e-05
2.6849e-05
2.64938e-05
2.63503e-05
2.62989e-05
2.62823e-05
2.62772e-05
2.62822e-05
2.63053e-05
2.63408e-05
2.6387e-05
2.64442e-05
2.65125e-05
2.65906e-05
2.66794e-05
2.67787e-05
2.68885e-05
2.70088e-05
2.71396e-05
2.72813e-05
2.74345e-05
2.76001e-05
2.77725e-05
2.79599e-05
2.81719e-05
2.84161e-05
2.87034e-05
2.90458e-05
2.94509e-05
2.99186e-05
3.04412e-05
3.1008e-05
3.16007e-05
3.21874e-05
3.27458e-05
3.32476e-05
3.36501e-05
3.39462e-05
3.41134e-05
3.41488e-05
3.40658e-05
3.37622e-05
3.32488e-05
3.24901e-05
3.15327e-05
3.04224e-05
2.93083e-05
2.82952e-05
2.74825e-05
2.69154e-05
2.65748e-05
2.63998e-05
2.63219e-05
2.62913e-05
2.62805e-05
2.6277e-05
2.62759e-05
2.62758e-05
2.62812e-05
2.62915e-05
2.63072e-05
2.63287e-05
2.63559e-05
2.63887e-05
2.64275e-05
2.64724e-05
2.65232e-05
2.65793e-05
2.66394e-05
2.67024e-05
2.67705e-05
2.68433e-05
2.69214e-05
2.70074e-05
2.71048e-05
2.72174e-05
2.73486e-05
2.7501e-05
2.76752e-05
2.78688e-05
2.8076e-05
2.82889e-05
2.84976e-05
2.86875e-05
2.88461e-05
2.89612e-05
2.90216e-05
2.90176e-05
2.89439e-05
2.87994e-05
2.85884e-05
2.83168e-05
2.80037e-05
2.76727e-05
2.7347e-05
2.70456e-05
2.67939e-05
2.65991e-05
2.6462e-05
2.63748e-05
2.63201e-05
2.62905e-05
2.62805e-05
2.62775e-05
2.62761e-05
2.62757e-05
2.62756e-05
)
;

boundaryField
{
    AXIS
    {
        type            empty;
    }
    OUTLET
    {
        type            calculated;
        value           nonuniform List<scalar> 
25
(
2.67253e-05
2.67233e-05
2.67179e-05
2.67088e-05
2.66964e-05
2.6681e-05
2.66632e-05
2.66436e-05
2.66231e-05
2.66024e-05
2.65815e-05
2.65588e-05
2.65326e-05
2.6502e-05
2.64672e-05
2.64295e-05
2.63914e-05
2.63559e-05
2.6326e-05
2.63037e-05
2.6289e-05
2.62809e-05
2.62772e-05
2.62759e-05
2.62756e-05
)
;
    }
    COFLOW
    {
        type            calculated;
        value           uniform 2.62756e-05;
    }
    PILOT
    {
        type            calculated;
        value           uniform 0.000100126;
    }
    FUEL
    {
        type            calculated;
        value           uniform 2.61542e-05;
    }
    WALL
    {
        type            calculated;
        value           nonuniform List<scalar> 
50
(
2.62758e-05
2.62812e-05
2.62915e-05
2.63072e-05
2.63287e-05
2.63559e-05
2.63887e-05
2.64275e-05
2.64724e-05
2.65232e-05
2.65793e-05
2.66394e-05
2.67024e-05
2.67705e-05
2.68433e-05
2.69214e-05
2.70074e-05
2.71048e-05
2.72174e-05
2.73486e-05
2.7501e-05
2.76752e-05
2.78688e-05
2.8076e-05
2.82889e-05
2.84976e-05
2.86875e-05
2.88461e-05
2.89612e-05
2.90216e-05
2.90176e-05
2.89439e-05
2.87994e-05
2.85884e-05
2.83168e-05
2.80037e-05
2.76727e-05
2.7347e-05
2.70456e-05
2.67939e-05
2.65991e-05
2.6462e-05
2.63748e-05
2.63201e-05
2.62905e-05
2.62805e-05
2.62775e-05
2.62761e-05
2.62757e-05
2.62756e-05
)
;
    }
    front
    {
        type            wedge;
    }
    back
    {
        type            wedge;
    }
}


// ************************************************************************* //
