/*--------------------------------*- C++ -*----------------------------------*\
| =========                 |                                                 |
| \\      /  F ield         | OpenFOAM: The Open Source CFD Toolbox           |
|  \\    /   O peration     | Version:  2.4.x                                 |
|   \\  /    A nd           | Web:      www.OpenFOAM.org                      |
|    \\/     M anipulation  |                                                 |
\*---------------------------------------------------------------------------*/
FoamFile
{
    version     2.0;
    format      ascii;
    class       volVectorField;
    location    "0.08";
    object      U;
}
// * * * * * * * * * * * * * * * * * * * * * * * * * * * * * * * * * * * * * //

dimensions      [0 1 -1 0 0 0 0];

internalField   nonuniform List<vector> 
1250
(
(10.4548 -0.0355145 -7.80573e-15)
(11.904 0.0624567 -4.37394e-14)
(12.6129 0.12873 -8.61957e-14)
(12.9537 0.15709 -1.93397e-13)
(13.064 0.147706 -1.61282e-13)
(13.0244 0.166713 -4.79751e-15)
(12.9169 0.112129 9.74583e-14)
(12.7873 0.144612 7.78002e-14)
(12.6385 0.105222 1.63392e-13)
(12.5318 0.140704 3.33914e-15)
(12.3796 0.135118 1.35462e-13)
(12.2288 0.0863631 2.78807e-13)
(12.0965 0.115342 4.44013e-13)
(11.9464 0.076007 2.32861e-13)
(11.8268 0.0986113 5.53309e-13)
(11.6946 0.0654519 1.79585e-12)
(11.5751 0.0832604 3.8214e-13)
(11.4396 0.0539377 1.70517e-12)
(11.3192 0.0701696 -3.78988e-12)
(11.1962 0.0673006 2.56505e-11)
(11.0784 0.0446334 8.36772e-12)
(10.9838 0.0572621 2.30235e-12)
(10.874 0.0543995 1.91192e-12)
(10.7628 0.0347462 1.3296e-12)
(10.6464 0.0507584 1.963e-12)
(10.5364 0.0342051 2.56781e-12)
(10.442 0.0437015 1.84398e-12)
(10.3404 0.0293209 1.81076e-12)
(10.2511 0.037425 1.54493e-12)
(10.1544 0.026667 6.71031e-13)
(10.0676 0.0314041 1.53537e-12)
(9.97828 0.0265379 2.76798e-12)
(9.88641 0.0273082 1.26221e-12)
(9.79267 0.0210329 8.74964e-13)
(9.69664 0.0228868 6.38924e-13)
(9.59436 0.0205508 7.83439e-12)
(9.49508 0.0192199 -3.7941e-11)
(9.37884 0.0192595 -1.99662e-11)
(9.25288 0.01873 8.62804e-11)
(9.11323 0.0224988 1.76143e-11)
(8.91158 0.0223912 1.13282e-11)
(8.64743 0.0298112 5.42467e-12)
(8.27152 0.0438017 5.40971e-12)
(7.5239 0.0443733 -1.22539e-11)
(6.06686 0.0587736 -2.77719e-12)
(4.21294 0.037695 -7.23381e-13)
(2.77864 0.0146437 -1.315e-13)
(2.15723 0.0111955 1.0481e-12)
(1.90594 0.00454017 -2.68051e-12)
(1.78345 0.00187666 1.6675e-11)
(10.5667 -0.0966198 -2.14856e-14)
(12.0695 0.192928 -1.29656e-13)
(12.6798 0.356201 -2.52158e-13)
(12.956 0.427602 -5.50554e-13)
(13.0212 0.462541 -3.48094e-13)
(12.9606 0.43664 4.9236e-14)
(12.8315 0.40114 2.42901e-13)
(12.6842 0.378817 2.29784e-13)
(12.5533 0.388686 3.56416e-13)
(12.4349 0.368961 -2.19412e-14)
(12.293 0.342936 4.38152e-13)
(12.1399 0.311637 6.50951e-13)
(12.0035 0.29568 1.30259e-12)
(11.863 0.276593 4.72508e-13)
(11.743 0.253063 1.80745e-12)
(11.6204 0.238833 3.88081e-12)
(11.4978 0.212886 9.06901e-13)
(11.3672 0.194976 3.22233e-12)
(11.2445 0.18119 -8.43697e-12)
(11.1331 0.168982 3.25819e-11)
(11.0218 0.164298 1.28376e-11)
(10.921 0.148493 5.13127e-12)
(10.8206 0.136646 5.29169e-12)
(10.7095 0.126546 2.7836e-12)
(10.5911 0.12831 5.82952e-12)
(10.4874 0.125772 5.4372e-12)
(10.3916 0.111698 5.12973e-12)
(10.2964 0.107885 3.71721e-12)
(10.205 0.0961663 4.25329e-12)
(10.1133 0.0927689 1.3124e-12)
(10.0241 0.0832325 4.42754e-12)
(9.93641 0.0789053 5.88122e-12)
(9.84676 0.0702754 3.28982e-12)
(9.75427 0.0670317 1.74712e-12)
(9.65917 0.0621389 2.24229e-12)
(9.55842 0.0585555 1.43156e-11)
(9.46039 0.0569546 -2.33e-11)
(9.34578 0.0554033 -3.21251e-11)
(9.22189 0.0548838 6.69643e-11)
(9.08332 0.0583405 4.04393e-11)
(8.88604 0.0663117 2.24659e-11)
(8.62501 0.0757227 1.47863e-11)
(8.25901 0.109669 1.46403e-11)
(7.52251 0.167168 -2.69197e-11)
(6.09424 0.147109 -7.49171e-12)
(4.25666 0.103052 -1.9896e-12)
(2.80262 0.0415936 -2.51331e-13)
(2.16582 0.0321819 2.92873e-12)
(1.91012 0.0121713 -7.12356e-12)
(1.78526 0.00580767 1.82497e-11)
(10.7112 -0.154509 -3.30707e-14)
(12.2891 0.437969 -2.57375e-13)
(12.743 0.655926 -4.83387e-13)
(12.8895 0.726225 -1.11051e-12)
(12.8668 0.720227 -6.51921e-13)
(12.7616 0.685773 4.79643e-13)
(12.5971 0.656579 6.41335e-13)
(12.4576 0.630075 4.35513e-13)
(12.3322 0.609845 6.91992e-13)
(12.2133 0.579977 -1.8259e-13)
(12.0784 0.540101 1.09478e-12)
(11.9316 0.494289 1.56396e-12)
(11.798 0.460124 2.47515e-12)
(11.6725 0.42286 7.78231e-13)
(11.5594 0.393391 4.39299e-12)
(11.4509 0.363619 7.54344e-12)
(11.3321 0.331395 4.87017e-13)
(11.208 0.302321 4.00342e-12)
(11.0937 0.281411 -8.17041e-12)
(10.9884 0.263849 2.6653e-11)
(10.886 0.24582 1.05093e-11)
(10.7908 0.230702 4.42148e-12)
(10.698 0.213652 8.28902e-12)
(10.5893 0.199225 4.93174e-12)
(10.4748 0.194863 1.13624e-11)
(10.3729 0.187818 9.78146e-12)
(10.2814 0.173817 8.28284e-12)
(10.1916 0.160524 6.29211e-12)
(10.1034 0.149857 6.63423e-12)
(10.0157 0.138611 1.89291e-12)
(9.92931 0.129161 9.2468e-12)
(9.84443 0.119467 1.08214e-11)
(9.75805 0.10978 4.48106e-12)
(9.6685 0.100834 2.84146e-12)
(9.57616 0.0954893 6.44632e-12)
(9.47789 0.0894502 2.08928e-11)
(9.38239 0.0861257 -1.18154e-11)
(9.27065 0.0847107 -3.80958e-11)
(9.14954 0.0840446 7.84595e-11)
(9.01351 0.0911177 5.30819e-11)
(8.82018 0.100109 3.47792e-11)
(8.56495 0.118173 2.27613e-11)
(8.20451 0.170128 2.05306e-11)
(7.48477 0.240738 -7.78526e-12)
(6.07692 0.230675 -1.05715e-11)
(4.25778 0.158521 -2.90051e-12)
(2.8107 0.0652952 6.5619e-14)
(2.17135 0.0503159 4.59688e-12)
(1.91174 0.0199483 -1.11325e-11)
(1.78648 0.00904451 1.71558e-11)
(10.6625 0.116634 -4.60536e-14)
(12.5154 0.917726 -5.29031e-13)
(12.6694 1.09466 -9.29767e-13)
(12.597 1.08898 -2.45826e-12)
(12.4665 1.05875 -2.13778e-13)
(12.3142 1.00215 1.65314e-12)
(12.165 0.952173 1.20131e-12)
(12.0358 0.905479 6.19968e-13)
(11.9234 0.853634 1.06702e-12)
(11.823 0.797553 -6.54133e-13)
(11.7063 0.737593 2.90649e-12)
(11.5825 0.674337 3.2771e-12)
(11.4688 0.625595 4.02987e-12)
(11.3644 0.577793 1.24526e-12)
(11.2691 0.535543 1.0247e-11)
(11.1775 0.494655 1.10822e-11)
(11.0717 0.450349 -4.28123e-12)
(10.9615 0.412472 3.50721e-12)
(10.861 0.384254 -5.39439e-12)
(10.7668 0.359944 1.26518e-11)
(10.6754 0.337238 -1.87879e-12)
(10.5891 0.315095 1.87256e-12)
(10.5046 0.290719 1.36518e-11)
(10.4054 0.269005 7.59383e-12)
(10.2982 0.260964 1.92587e-11)
(10.2012 0.254293 1.32114e-11)
(10.1141 0.239538 1.05512e-11)
(10.0311 0.221332 8.07549e-12)
(9.94856 0.205643 8.08669e-12)
(9.8667 0.191346 2.30283e-12)
(9.78521 0.17732 1.82933e-11)
(9.70487 0.165004 1.49803e-11)
(9.62303 0.151221 2.85066e-12)
(9.53814 0.139086 4.6446e-12)
(9.45017 0.131146 1.40757e-11)
(9.35606 0.123156 2.54966e-11)
(9.26412 0.118714 6.85761e-12)
(9.156 0.11649 -2.91611e-11)
(9.03968 0.115867 6.90688e-11)
(8.90646 0.12526 5.52121e-11)
(8.71778 0.138344 4.03664e-11)
(8.46965 0.1627 2.79071e-11)
(8.11555 0.231144 2.40654e-11)
(7.39614 0.32924 2.04422e-12)
(6.02225 0.311174 -1.32167e-11)
(4.23506 0.215547 -3.20661e-12)
(2.80422 0.0939562 1.16097e-12)
(2.17139 0.0717325 5.83469e-12)
(1.91098 0.0281967 -1.51315e-11)
(1.78684 0.012845 9.83515e-12)
(10.006 0.754152 -8.02993e-14)
(12.1697 1.79147 -1.52987e-12)
(12.0015 1.66973 -1.45956e-12)
(11.6932 1.51639 -8.95897e-13)
(11.5903 1.43079 -1.08672e-12)
(11.4818 1.32586 3.7972e-13)
(11.3971 1.22547 7.42674e-13)
(11.3355 1.13829 5.31185e-13)
(11.2874 1.06194 1.40437e-12)
(11.2377 0.985139 -1.41954e-12)
(11.1654 0.904204 8.35952e-12)
(11.0822 0.828531 5.87668e-12)
(11.0055 0.76648 5.65117e-12)
(10.9325 0.70752 3.26315e-12)
(10.866 0.656814 6.29132e-12)
(10.7998 0.606734 9.91303e-12)
(10.7154 0.55319 2.84095e-12)
(10.6265 0.50928 5.31081e-12)
(10.5454 0.474951 -3.10535e-12)
(10.4673 0.444992 9.69671e-12)
(10.3906 0.416613 5.36098e-12)
(10.3169 0.389195 5.7267e-12)
(10.2443 0.358841 -2.67262e-12)
(10.1578 0.331322 1.20382e-11)
(10.0627 0.315882 1.43295e-11)
(9.97426 0.306717 1.24773e-11)
(9.89283 0.295747 1.12137e-11)
(9.81683 0.276409 8.85019e-12)
(9.74285 0.256087 8.16934e-12)
(9.66854 0.238037 4.44939e-12)
(9.59409 0.220925 7.55423e-12)
(9.5201 0.205551 1.5174e-11)
(9.44427 0.189482 1.91071e-11)
(9.36571 0.173926 1.02271e-11)
(9.28342 0.163043 9.04942e-12)
(9.19494 0.153489 2.91298e-11)
(9.1077 0.147969 5.53203e-12)
(9.0044 0.145344 -3.24164e-11)
(8.89382 0.145031 6.14518e-11)
(8.76415 0.156972 5.17208e-11)
(8.58121 0.173432 4.09574e-11)
(8.34152 0.204469 3.00806e-11)
(7.99266 0.28723 2.56853e-11)
(7.27374 0.406117 6.8935e-12)
(5.93372 0.382973 -6.80201e-12)
(4.18665 0.267303 -2.55071e-12)
(2.78374 0.121447 -5.46186e-12)
(2.16774 0.0906577 6.24853e-12)
(1.90849 0.0362454 -1.98157e-11)
(1.78654 0.0164315 4.30486e-13)
(7.58807 0.410017 -3.63348e-13)
(8.47378 2.30866 -3.48417e-12)
(9.42465 1.87838 -2.29013e-12)
(9.71982 1.76286 -2.02571e-12)
(10.0015 1.61258 -1.59616e-12)
(10.1538 1.48539 -2.84232e-13)
(10.2676 1.38011 5.83921e-13)
(10.3508 1.28576 6.34773e-13)
(10.4156 1.1996 1.71693e-12)
(10.449 1.10878 -1.28023e-12)
(10.4459 1.01793 8.19982e-12)
(10.4265 0.937674 6.96105e-12)
(10.404 0.872807 6.84995e-12)
(10.3785 0.813476 4.96646e-12)
(10.353 0.757309 5.94502e-12)
(10.3195 0.698721 9.24651e-12)
(10.2644 0.637672 4.67766e-12)
(10.2041 0.590209 6.31081e-12)
(10.148 0.551147 -2.41081e-12)
(10.0914 0.516766 1.37531e-11)
(10.0337 0.483851 9.05327e-12)
(9.9766 0.452246 7.18147e-12)
(9.91922 0.417496 3.33567e-12)
(9.84832 0.385853 6.88999e-12)
(9.76829 0.36536 1.0758e-11)
(9.69228 0.35041 1.12861e-11)
(9.6209 0.339094 1.11504e-11)
(9.55284 0.323537 8.56725e-12)
(9.48814 0.301933 7.204e-12)
(9.42385 0.28012 5.42375e-12)
(9.35838 0.259976 2.88034e-12)
(9.29255 0.241968 2.1486e-11)
(9.22431 0.224227 1.80934e-11)
(9.15321 0.206589 1.09331e-11)
(9.07823 0.192438 9.31089e-12)
(8.99697 0.180772 2.08033e-11)
(8.9155 0.174677 5.88426e-12)
(8.81825 0.171689 -2.92165e-11)
(8.71445 0.171829 5.19224e-11)
(8.58877 0.186349 4.55492e-11)
(8.41281 0.206199 3.83455e-11)
(8.1825 0.243615 2.97646e-11)
(7.83787 0.338116 2.57526e-11)
(7.11753 0.475696 9.02031e-12)
(5.81495 0.447397 -2.37086e-12)
(4.1145 0.312175 -1.75397e-12)
(2.75249 0.148405 -3.30641e-12)
(2.15933 0.108608 6.45628e-12)
(1.90419 0.0440059 -1.92776e-11)
(1.78545 0.0200053 -4.47492e-12)
(4.00905 -0.651097 -1.77956e-12)
(5.1902 0.378305 -3.85635e-12)
(6.56838 1.00255 -2.70574e-12)
(7.44075 1.36494 -3.25819e-12)
(8.09152 1.42476 -1.61501e-12)
(8.53634 1.4133 3.98965e-13)
(8.88454 1.36869 1.31629e-12)
(9.14325 1.30648 1.268e-12)
(9.34747 1.23409 2.20068e-12)
(9.48923 1.14779 -7.04872e-13)
(9.57997 1.06269 9.18455e-12)
(9.64214 0.990958 8.15047e-12)
(9.68812 0.932455 8.04982e-12)
(9.71737 0.877421 6.08192e-12)
(9.73703 0.824202 7.71164e-12)
(9.74324 0.764577 9.74179e-12)
(9.72553 0.698829 3.96136e-12)
(9.7005 0.64985 5.81762e-12)
(9.67462 0.608467 -1.79085e-12)
(9.64402 0.571179 1.51012e-11)
(9.60928 0.535368 8.37305e-12)
(9.57247 0.50167 6.61612e-12)
(9.53369 0.46461 6.94297e-12)
(9.48187 0.429543 5.68748e-12)
(9.41908 0.40548 1.0487e-11)
(9.35789 0.386824 1.11307e-11)
(9.29993 0.372004 1.08491e-11)
(9.24323 0.358065 6.95903e-12)
(9.18861 0.339379 5.40178e-12)
(9.13525 0.315944 4.66379e-12)
(9.08093 0.293078 3.22383e-12)
(9.02526 0.272969 1.96758e-11)
(8.96634 0.253778 1.31111e-11)
(8.90384 0.235129 8.58241e-12)
(8.83721 0.219186 1.19705e-11)
(8.7645 0.204719 1.39453e-11)
(8.69024 0.197629 6.05595e-12)
(8.60018 0.194705 -2.21063e-11)
(8.50394 0.195569 4.21112e-11)
(8.38268 0.212693 3.8466e-11)
(8.21514 0.235605 3.39472e-11)
(7.9944 0.279445 2.76491e-11)
(7.65313 0.384697 2.46692e-11)
(6.93168 0.535742 9.12046e-12)
(5.67115 0.50289 9.01526e-14)
(4.02316 0.34975 -1.04228e-12)
(2.71183 0.173912 -9.10658e-13)
(2.14621 0.124518 6.14895e-12)
(1.89805 0.0513264 -1.61313e-11)
(1.78374 0.0234319 -6.37983e-12)
(2.80941 -2.40395 -4.64986e-12)
(2.81881 -0.866819 -3.41113e-12)
(4.13523 0.118699 -2.60839e-12)
(5.26134 0.743247 -4.68844e-12)
(6.17413 1.02135 5.41895e-14)
(6.85291 1.15809 3.25821e-12)
(7.4032 1.20506 3.1421e-12)
(7.82882 1.20502 2.3755e-12)
(8.16935 1.1715 2.8794e-12)
(8.42211 1.10972 6.10321e-13)
(8.61067 1.04641 6.37625e-12)
(8.75816 0.989562 9.23454e-12)
(8.87668 0.939156 9.34184e-12)
(8.9693 0.888964 6.81808e-12)
(9.04167 0.843366 1.23529e-11)
(9.08914 0.793409 9.94715e-12)
(9.1115 0.733514 -5.94974e-13)
(9.12672 0.684901 4.32808e-12)
(9.13469 0.643959 -6.98595e-13)
(9.13354 0.606536 1.05435e-11)
(9.12526 0.570473 3.1058e-12)
(9.11172 0.536541 5.32929e-12)
(9.09389 0.499135 1.05268e-11)
(9.06325 0.462248 5.25662e-12)
(9.01996 0.43524 1.32749e-11)
(8.97586 0.41417 1.17078e-11)
(8.93368 0.396559 9.78568e-12)
(8.89115 0.381077 3.33049e-12)
(8.84882 0.365182 2.94898e-12)
(8.80731 0.343891 3.09856e-12)
(8.76545 0.31932 7.51914e-12)
(8.72166 0.297784 1.37147e-11)
(8.67362 0.277573 5.7731e-12)
(8.62114 0.258204 5.76411e-12)
(8.56391 0.24167 1.6739e-11)
(8.50058 0.225997 7.18411e-12)
(8.43465 0.217377 6.55754e-12)
(8.35299 0.213493 -1.20664e-11)
(8.26482 0.215868 3.46987e-11)
(8.14852 0.235542 3.09786e-11)
(7.99082 0.261412 2.86911e-11)
(7.77953 0.310286 2.44078e-11)
(7.44038 0.425716 2.27861e-11)
(6.71934 0.586913 7.38469e-12)
(5.50497 0.547191 1.21269e-12)
(3.91573 0.380279 -4.47255e-13)
(2.66252 0.198029 2.17873e-12)
(2.12939 0.138675 5.31803e-12)
(1.89094 0.0580442 -1.04981e-11)
(1.78174 0.0266948 -6.53528e-12)
(2.66923 -1.45629 -3.04869e-12)
(1.60614 -1.13666 -2.21366e-12)
(2.40041 -0.576595 -1.99972e-12)
(3.50491 0.0884062 -3.37092e-12)
(4.49457 0.522601 1.50959e-12)
(5.29658 0.79401 4.49004e-12)
(5.97115 0.938624 5.48731e-12)
(6.51826 1.00876 3.36797e-12)
(6.96544 1.02315 3.70754e-12)
(7.3147 0.998576 1.92005e-12)
(7.59301 0.967681 9.25994e-12)
(7.82003 0.934249 1.30448e-11)
(8.00764 0.900673 1.07238e-11)
(8.16137 0.863382 7.77962e-12)
(8.28742 0.826559 1.06223e-11)
(8.37954 0.788238 5.03393e-12)
(8.44161 0.740793 2.60248e-12)
(8.49698 0.697859 4.61753e-12)
(8.54128 0.659708 6.49491e-13)
(8.57145 0.624487 1.12092e-11)
(8.5912 0.589976 6.71797e-12)
(8.60256 0.556925 7.32265e-12)
(8.60745 0.520866 3.51737e-12)
(8.59915 0.483319 4.51325e-12)
(8.5772 0.453709 9.19493e-12)
(8.55225 0.431187 1.07135e-11)
(8.5275 0.412042 6.94384e-12)
(8.50121 0.39489 -2.74867e-12)
(8.47362 0.379372 6.63083e-13)
(8.445 0.361398 2.87755e-12)
(8.41631 0.338372 2.87129e-12)
(8.38596 0.315565 8.79714e-12)
(8.35013 0.294995 5.83257e-12)
(8.30879 0.27529 6.44674e-12)
(8.2622 0.258418 1.18934e-11)
(8.20894 0.24281 6.29352e-12)
(8.15181 0.233799 4.21324e-12)
(8.07978 0.229514 -8.91428e-12)
(8 0.232794 2.11578e-11)
(7.88927 0.254314 2.32424e-11)
(7.74253 0.282533 2.32757e-11)
(7.53977 0.335578 2.06215e-11)
(7.20219 0.460056 2.03254e-11)
(6.48335 0.629022 3.76774e-12)
(5.31799 0.585123 1.57664e-12)
(3.79472 0.404459 1.06704e-13)
(2.60698 0.222534 5.91328e-13)
(2.11042 0.149919 3.99393e-12)
(1.8834 0.0637609 -7.27418e-12)
(1.77976 0.029775 -6.03577e-12)
(2.1452 -1.04599 -4.12918e-13)
(1.22806 -0.977326 -8.50818e-13)
(1.52705 -0.815619 -1.13504e-12)
(2.27748 -0.362618 -1.94213e-12)
(3.17054 0.0764292 -1.83954e-13)
(3.96901 0.410016 1.51915e-12)
(4.68212 0.625013 2.62144e-12)
(5.28971 0.759235 3.29829e-12)
(5.80247 0.825727 4.78041e-12)
(6.22325 0.84474 3.7819e-12)
(6.57314 0.848485 6.53507e-12)
(6.86556 0.842348 9.68857e-12)
(7.11248 0.829507 9.8417e-12)
(7.32113 0.808205 7.83513e-12)
(7.49599 0.782438 9.63345e-12)
(7.62791 0.751983 7.26965e-12)
(7.73011 0.71783 4.83883e-12)
(7.82556 0.686958 5.36062e-12)
(7.90568 0.654686 2.77919e-12)
(7.96766 0.623052 6.62543e-12)
(8.01632 0.591116 8.26391e-12)
(8.05383 0.559984 8.90997e-12)
(8.08241 0.526431 6.44149e-12)
(8.09723 0.490142 5.45572e-12)
(8.09819 0.460123 7.67705e-12)
(8.0941 0.437494 9.2966e-12)
(8.08813 0.417885 5.48088e-12)
(8.0792 0.40028 -3.9457e-12)
(8.06774 0.383953 1.07739e-12)
(8.054 0.368294 3.62515e-12)
(8.03891 0.348426 -4.45447e-13)
(8.02253 0.325933 6.39994e-12)
(8.00012 0.30552 5.91995e-12)
(7.97085 0.286074 8.80981e-12)
(7.93579 0.269342 8.28843e-12)
(7.89338 0.253844 3.62695e-12)
(7.84586 0.245342 9.10869e-12)
(7.78374 0.24188 -5.08678e-12)
(7.71227 0.246312 2.02086e-11)
(7.6083 0.268785 1.71212e-11)
(7.47343 0.298415 1.83528e-11)
(7.27788 0.355762 1.67279e-11)
(6.9409 0.489312 1.73222e-11)
(6.2312 0.658836 6.72954e-12)
(5.1167 0.614973 1.78072e-12)
(3.66355 0.423221 6.33646e-13)
(2.54548 0.245522 -1.26023e-14)
(2.08836 0.157506 2.58602e-12)
(1.87573 0.0683163 -5.70753e-12)
(1.77797 0.0326617 -5.34684e-12)
(1.0832 -0.0795802 -3.11499e-14)
(1.29455 -0.425925 -5.46158e-14)
(1.25367 -0.600861 -3.87499e-13)
(1.58113 -0.477461 -9.57433e-13)
(2.20499 -0.209384 -8.51213e-13)
(2.88614 0.08717 -9.23007e-13)
(3.55631 0.318945 -9.00284e-14)
(4.16564 0.48943 3.96691e-12)
(4.69878 0.596786 7.2491e-12)
(5.15694 0.661425 6.01843e-12)
(5.55282 0.700705 6.36702e-12)
(5.89444 0.72017 7.4451e-12)
(6.18756 0.727148 8.53234e-12)
(6.44086 0.721932 7.06745e-12)
(6.65581 0.701463 9.05081e-12)
(6.82836 0.677091 7.44156e-12)
(6.97252 0.658934 6.23443e-12)
(7.10623 0.643996 6.08103e-12)
(7.22069 0.621648 4.71379e-12)
(7.31471 0.596783 4.48538e-12)
(7.39319 0.570139 1.19824e-11)
(7.45815 0.542979 1.0551e-11)
(7.51206 0.5137 7.70805e-12)
(7.55164 0.481824 6.49722e-12)
(7.57688 0.454439 7.77707e-12)
(7.59495 0.432872 7.73194e-12)
(7.60894 0.413782 1.33083e-11)
(7.61858 0.3965 4.78651e-12)
(7.62462 0.3806 4.51349e-12)
(7.6269 0.365839 4.58297e-12)
(7.62675 0.348611 6.37359e-12)
(7.62531 0.328846 7.12669e-12)
(7.61724 0.309189 6.63529e-12)
(7.60107 0.290579 1.24021e-11)
(7.57839 0.2744 3.09739e-12)
(7.54768 0.25955 5.05329e-13)
(7.51065 0.251654 1.31687e-11)
(7.45916 0.249183 -1.54564e-12)
(7.39632 0.255698 8.26617e-12)
(7.30048 0.279003 1.07433e-11)
(7.17802 0.309901 1.40333e-11)
(6.98839 0.371726 1.28205e-11)
(6.65022 0.514487 1.4281e-11)
(5.96131 0.67825 7.98137e-12)
(4.89919 0.63631 1.49872e-12)
(3.522 0.43569 1.18009e-12)
(2.47615 0.268132 -2.46546e-13)
(2.06372 0.16093 1.12733e-12)
(1.86768 0.0719571 -5.22956e-12)
(1.77635 0.0354321 -4.59834e-12)
(0.964388 -0.0195647 4.65114e-14)
(1.17413 -0.182267 2.93113e-13)
(1.15054 -0.268724 1.60853e-14)
(1.26067 -0.301649 -5.17581e-13)
(1.56715 -0.259186 -1.59387e-12)
(2.04182 -0.105945 -4.19538e-12)
(2.58816 0.0710356 -2.86887e-12)
(3.13352 0.230556 8.75664e-12)
(3.64597 0.354392 1.32787e-11)
(4.11207 0.447475 8.31295e-12)
(4.52355 0.513116 6.81856e-12)
(4.89035 0.555165 5.66416e-12)
(5.21339 0.581262 7.46472e-12)
(5.49776 0.593481 5.48959e-12)
(5.74291 0.586499 9.47293e-12)
(5.95519 0.578033 6.33085e-12)
(6.1434 0.577357 7.4005e-12)
(6.31226 0.572854 6.73702e-12)
(6.45854 0.559776 6.25852e-12)
(6.58435 0.543833 3.96921e-12)
(6.69351 0.525027 7.97071e-12)
(6.78741 0.504556 1.14321e-11)
(6.86864 0.481783 7.09204e-12)
(6.93502 0.456843 7.24962e-12)
(6.98621 0.434469 8.72258e-12)
(7.02812 0.415379 7.52814e-12)
(7.06404 0.397995 1.24486e-11)
(7.09424 0.382044 9.59031e-12)
(7.11954 0.367296 8.29665e-12)
(7.13966 0.353378 6.23212e-12)
(7.15661 0.339164 1.51659e-11)
(7.17158 0.322917 8.37683e-12)
(7.17911 0.305004 8.70519e-12)
(7.17755 0.287795 1.6776e-11)
(7.1688 0.272852 3.25899e-12)
(7.15111 0.259285 -1.01604e-12)
(7.12577 0.252335 1.99731e-11)
(7.08623 0.251519 -1.46094e-12)
(7.03306 0.260178 4.48718e-13)
(6.94749 0.28429 5.68547e-12)
(6.83787 0.317123 1.06593e-11)
(6.65268 0.384285 8.72371e-12)
(6.31364 0.534278 1.14874e-11)
(5.65696 0.688254 8.0776e-12)
(4.65282 0.647445 4.01412e-13)
(3.35998 0.442262 1.90714e-12)
(2.39779 0.288816 -5.32907e-13)
(2.0379 0.173632 -5.59464e-13)
(1.85948 0.0754868 -5.56576e-12)
(1.77491 0.0381627 -3.70982e-12)
(0.950286 0.0230373 9.70829e-14)
(1.03979 -0.0564353 6.46835e-13)
(1.06361 -0.0962927 1.43671e-13)
(1.12235 -0.11763 -6.37849e-13)
(1.25009 -0.132471 -3.13006e-12)
(1.48829 -0.10903 -1.01746e-11)
(1.83684 -0.0452615 -4.51362e-12)
(2.25118 0.048772 7.80308e-12)
(2.68391 0.149485 8.20649e-12)
(3.10713 0.237337 6.69252e-12)
(3.50497 0.31093 5.92038e-12)
(3.87539 0.367838 2.62463e-12)
(4.21004 0.409525 7.49129e-12)
(4.51304 0.437442 2.66517e-12)
(4.78408 0.452573 1.33199e-11)
(5.02353 0.466331 2.06772e-12)
(5.23908 0.476601 1.04641e-11)
(5.43496 0.479148 7.23059e-12)
(5.61069 0.475595 7.3484e-12)
(5.76732 0.469509 2.75509e-12)
(5.90641 0.459746 8.04909e-12)
(6.02922 0.447372 1.49221e-11)
(6.1387 0.432407 2.9823e-12)
(6.23311 0.414844 8.76973e-12)
(6.31117 0.397603 1.06681e-11)
(6.37807 0.382033 8.14662e-12)
(6.43758 0.367689 1.42661e-11)
(6.49014 0.354148 1.31927e-11)
(6.53669 0.341545 1.13783e-11)
(6.57679 0.32906 9.74925e-12)
(6.61287 0.318127 9.93845e-12)
(6.6458 0.305961 6.20614e-12)
(6.67031 0.290644 1.35191e-11)
(6.68504 0.275727 2.18744e-11)
(6.69177 0.262824 1.36602e-11)
(6.68864 0.251105 9.19743e-13)
(6.67614 0.245759 1.42956e-11)
(6.6503 0.247451 -1.07426e-11)
(6.60842 0.25852 -5.97488e-12)
(6.5357 0.283194 3.38063e-12)
(6.43866 0.31919 8.80283e-12)
(6.25593 0.392014 4.02107e-12)
(5.92046 0.545626 9.51106e-12)
(5.30253 0.685552 7.44277e-12)
(4.3624 0.650902 1.17788e-12)
(3.16923 0.442837 3.45999e-12)
(2.3116 0.307518 -1.35686e-12)
(2.00934 0.190268 -2.88182e-12)
(1.84913 0.0787234 -6.57231e-12)
(1.77324 0.0407952 -2.39267e-12)
(0.930625 0.0204237 4.21954e-14)
(0.990844 -0.0102143 1.63174e-13)
(1.01835 -0.0224896 -1.19551e-13)
(1.05979 -0.025396 -1.0828e-12)
(1.12067 -0.0256223 -6.16906e-12)
(1.22325 -0.0196101 -5.62431e-12)
(1.38535 -0.0094541 5.35546e-13)
(1.6177 0.0102805 5.96442e-13)
(1.9084 0.0452596 1.98279e-12)
(2.23621 0.0938417 2.71875e-12)
(2.57435 0.151423 3.08616e-12)
(2.90764 0.206459 -4.17487e-12)
(3.22587 0.250748 -5.36065e-12)
(3.52481 0.285428 -3.37989e-12)
(3.80196 0.311479 8.59753e-12)
(4.05478 0.332985 3.27978e-12)
(4.28852 0.350803 5.60167e-12)
(4.5052 0.363895 5.30672e-12)
(4.70322 0.371556 7.50021e-12)
(4.88394 0.375873 -1.1817e-12)
(5.04829 0.37589 2.25828e-12)
(5.19705 0.372315 7.38094e-12)
(5.3325 0.365944 3.44956e-12)
(5.45278 0.355722 1.6412e-11)
(5.5567 0.343359 1.39883e-11)
(5.6489 0.331817 9.19531e-12)
(5.73279 0.321323 2.13982e-11)
(5.80865 0.310812 1.64231e-11)
(5.87723 0.300937 1.33292e-11)
(5.93867 0.291976 1.29943e-11)
(5.99542 0.285211 2.67776e-12)
(6.04687 0.276393 3.87207e-12)
(6.08891 0.264263 7.30641e-12)
(6.12117 0.252536 1.11818e-11)
(6.14456 0.242353 1.63923e-11)
(6.15734 0.233693 -7.66837e-13)
(6.1586 0.230798 1.00987e-11)
(6.14792 0.234445 -1.6636e-11)
(6.11992 0.248558 -8.20824e-12)
(6.06132 0.274906 6.60559e-12)
(5.97461 0.315216 8.50595e-12)
(5.79464 0.392124 -2.38276e-12)
(5.47118 0.546084 9.81035e-12)
(4.88988 0.668289 6.63319e-12)
(4.02292 0.646198 8.66981e-13)
(2.94856 0.431425 8.41498e-13)
(2.2184 0.318402 -3.87128e-12)
(1.97639 0.198128 -6.58904e-12)
(1.83679 0.0816853 -7.89184e-12)
(1.77105 0.043089 -8.78873e-15)
(0.920485 0.0171371 9.6574e-15)
(0.959828 0.0135452 3.2707e-15)
(0.98651 0.0158608 -2.10578e-13)
(1.01943 0.0201657 -9.18759e-13)
(1.05857 0.0264932 -2.67185e-12)
(1.11227 0.0357593 -3.35881e-12)
(1.18743 0.0449441 -2.39461e-12)
(1.29244 0.05176 -4.92872e-12)
(1.43541 0.0593552 -2.40524e-12)
(1.62072 0.0686292 -8.58655e-13)
(1.84234 0.0829072 -1.98226e-12)
(2.08737 0.102754 -3.67797e-12)
(2.34434 0.126959 -4.76597e-12)
(2.60473 0.154489 -4.31817e-12)
(2.86035 0.182179 -1.62997e-12)
(3.10527 0.207127 -2.17934e-12)
(3.33911 0.228191 2.7623e-12)
(3.561 0.246359 3.60756e-12)
(3.76962 0.260693 6.99518e-12)
(3.96541 0.271361 -9.82502e-13)
(4.14731 0.277866 1.41596e-12)
(4.31565 0.281426 3.20148e-12)
(4.47189 0.282028 5.18065e-12)
(4.61365 0.277654 9.04548e-12)
(4.73989 0.270241 1.36068e-11)
(4.85554 0.263882 1.10636e-11)
(4.96223 0.258164 1.50016e-11)
(5.06018 0.252773 1.46997e-11)
(5.15101 0.247682 1.30744e-11)
(5.23416 0.243064 1.27947e-11)
(5.31004 0.239517 9.42932e-12)
(5.37918 0.233282 3.55675e-12)
(5.43918 0.22513 4.20031e-12)
(5.48938 0.217202 3.45861e-12)
(5.53021 0.210522 1.78937e-11)
(5.55945 0.205748 5.16361e-12)
(5.57938 0.205906 -1.46812e-12)
(5.581 0.212577 -1.32861e-11)
(5.56719 0.229274 -5.00715e-13)
(5.52416 0.258368 3.61675e-12)
(5.44491 0.304101 7.07147e-12)
(5.27187 0.383889 8.06657e-13)
(4.96728 0.531937 4.95453e-12)
(4.4192 0.640351 5.22121e-12)
(3.63263 0.629661 -4.88516e-12)
(2.69879 0.411496 -2.05821e-12)
(2.11917 0.317028 -3.98655e-12)
(1.93913 0.196307 -5.36329e-12)
(1.82229 0.0840933 -8.24588e-12)
(1.76779 0.0448996 1.24284e-12)
(0.913906 0.0137624 7.71652e-15)
(0.940895 0.0224784 9.31116e-15)
(0.964359 0.0318487 -1.03907e-13)
(0.990552 0.0407157 -7.69492e-13)
(1.02061 0.0499171 -2.3649e-12)
(1.05725 0.0595896 -3.26259e-12)
(1.10125 0.0687689 -2.56763e-12)
(1.15684 0.0779606 -2.70136e-12)
(1.2266 0.08506 -2.25716e-12)
(1.3136 0.089828 -1.89148e-12)
(1.42042 0.0933438 -9.02065e-12)
(1.55006 0.0930468 -6.16809e-12)
(1.70617 0.0939927 -5.12515e-12)
(1.88286 0.0989316 -3.54518e-12)
(2.07417 0.105198 -1.14437e-11)
(2.27442 0.115136 -7.97078e-12)
(2.4763 0.128445 7.70737e-12)
(2.67789 0.14418 4.40763e-12)
(2.87633 0.159946 7.79136e-12)
(3.06862 0.172748 -1.06817e-11)
(3.25378 0.181761 5.06667e-12)
(3.43017 0.188602 1.26021e-12)
(3.5965 0.19301 1.18701e-11)
(3.751 0.192909 6.66192e-12)
(3.89407 0.190777 1.80474e-11)
(4.02855 0.189556 1.25536e-11)
(4.15409 0.187867 1.21063e-11)
(4.27107 0.186499 1.21437e-11)
(4.37952 0.18542 1.13116e-11)
(4.47986 0.183363 1.10603e-11)
(4.57285 0.181463 1.12102e-11)
(4.6586 0.178379 -1.91177e-12)
(4.73549 0.174476 7.77628e-13)
(4.80291 0.170648 -1.99472e-13)
(4.86091 0.168111 8.21789e-12)
(4.90729 0.167346 -1.97745e-12)
(4.94465 0.171333 -2.37104e-12)
(4.96303 0.181674 -3.27033e-12)
(4.96088 0.201881 6.40863e-12)
(4.93061 0.233915 4.33493e-12)
(4.85939 0.284153 6.98686e-12)
(4.69753 0.366208 1.06999e-12)
(4.41154 0.505421 2.12493e-12)
(3.90428 0.603139 3.48349e-12)
(3.20673 0.595038 -9.47079e-12)
(2.43149 0.382821 -5.22035e-12)
(2.02194 0.308906 -5.28187e-12)
(1.89551 0.184808 -5.39231e-12)
(1.80459 0.0857985 -7.78652e-12)
(1.76281 0.0460764 -1.24809e-12)
(0.909186 0.0114595 3.04332e-14)
(0.929136 0.0251414 1.37827e-13)
(0.948675 0.0375294 3.81616e-13)
(0.970076 0.0488001 -3.73552e-13)
(0.993563 0.0596832 -1.30983e-12)
(1.02073 0.0695211 -1.79675e-12)
(1.05277 0.0785353 -1.84769e-12)
(1.08966 0.086536 -1.86978e-12)
(1.1312 0.0930175 -1.81198e-12)
(1.18022 0.0994402 -1.90601e-12)
(1.23656 0.103883 -3.34313e-12)
(1.29976 0.10516 -3.44726e-12)
(1.37443 0.105092 -3.27805e-12)
(1.46376 0.103242 -3.19243e-12)
(1.56854 0.0993484 2.89681e-12)
(1.68948 0.09605 -6.16589e-13)
(1.82453 0.0952987 1.53097e-12)
(1.97172 0.0954462 1.2093e-12)
(2.12839 0.097208 4.47515e-12)
(2.29052 0.100657 -9.73156e-12)
(2.45359 0.105289 -2.82217e-12)
(2.61588 0.110389 -1.83504e-12)
(2.7761 0.114728 2.39434e-12)
(2.93046 0.116901 1.75755e-12)
(3.0779 0.117611 6.41882e-12)
(3.21887 0.117961 6.18193e-12)
(3.35249 0.118004 8.49975e-12)
(3.47951 0.117648 9.20341e-12)
(3.59987 0.117813 8.38644e-12)
(3.71298 0.118175 9.13624e-12)
(3.81887 0.118827 6.97132e-12)
(3.91797 0.118769 1.18446e-12)
(4.00909 0.118722 -1.22146e-13)
(4.09149 0.118519 -1.60243e-12)
(4.16478 0.120172 2.31502e-12)
(4.22691 0.123292 -4.11113e-14)
(4.27927 0.130521 -3.66849e-12)
(4.3119 0.145444 8.54008e-12)
(4.32205 0.169274 5.02063e-12)
(4.3009 0.203599 4.27332e-12)
(4.23721 0.257192 -5.04283e-12)
(4.08916 0.342266 -2.13938e-12)
(3.81991 0.470573 -3.6667e-13)
(3.36365 0.555809 1.33737e-12)
(2.76659 0.537609 -1.23057e-11)
(2.17894 0.351091 -7.67682e-12)
(1.92386 0.282472 -6.59451e-12)
(1.84611 0.162697 -5.89294e-12)
(1.78394 0.0853432 -6.73278e-12)
(1.75646 0.0458028 -6.98954e-12)
(0.906443 0.00965133 2.14883e-14)
(0.921403 0.0241393 1.06762e-13)
(0.937269 0.0372563 5.03598e-13)
(0.954812 0.0491648 -3.47577e-13)
(0.974025 0.0603238 -1.57103e-12)
(0.995444 0.0706748 -1.45366e-12)
(1.01941 0.0799571 -1.45106e-12)
(1.04646 0.0876982 -1.46316e-12)
(1.07726 0.0941969 -1.49077e-12)
(1.11069 0.0992959 -1.63892e-12)
(1.145 0.10226 -2.14263e-12)
(1.18314 0.10475 -2.09858e-12)
(1.22751 0.106639 -1.95066e-12)
(1.27725 0.106606 -1.75705e-12)
(1.3327 0.105129 -4.6642e-13)
(1.39534 0.103322 -4.13579e-13)
(1.46712 0.100761 -1.83132e-14)
(1.54892 0.09655 -8.88134e-13)
(1.64236 0.0906944 -1.01937e-12)
(1.74697 0.0849779 3.76069e-12)
(1.86128 0.0799232 2.1157e-12)
(1.98417 0.0754449 -5.07737e-13)
(2.11347 0.0715092 -7.64345e-13)
(2.24496 0.0675807 -2.21279e-12)
(2.37656 0.0637902 1.13811e-12)
(2.50766 0.0611771 -3.47913e-14)
(2.63625 0.0598782 9.53159e-12)
(2.76185 0.0593698 6.93354e-12)
(2.88334 0.0599371 4.59514e-12)
(2.99953 0.0609675 7.20253e-12)
(3.11023 0.0626226 -3.86893e-12)
(3.21545 0.0642453 -3.70462e-12)
(3.31398 0.0666271 -3.62308e-12)
(3.40528 0.0690902 -3.07732e-12)
(3.48839 0.0732516 -2.31996e-13)
(3.56033 0.079567 -2.05858e-12)
(3.62211 0.0900963 -4.36344e-12)
(3.66264 0.108755 -3.50874e-13)
(3.67988 0.135617 6.19793e-13)
(3.66338 0.173647 1.38426e-12)
(3.60311 0.229437 -1.4418e-12)
(3.46469 0.316768 -3.77089e-12)
(3.21162 0.424086 -2.29912e-12)
(2.82339 0.494406 -1.53664e-12)
(2.34901 0.445053 -1.14291e-11)
(1.96298 0.331155 -7.74094e-12)
(1.85173 0.246081 -6.67145e-12)
(1.80701 0.137492 -5.92658e-12)
(1.76542 0.0828972 -6.17192e-12)
(1.7491 0.0441642 -6.17564e-12)
(0.904652 0.00801884 -5.83015e-14)
(0.915983 0.0214935 -4.64655e-13)
(0.928696 0.0339887 -2.09636e-13)
(0.94302 0.0455452 -4.24559e-13)
(0.958813 0.0563508 -8.08079e-13)
(0.976266 0.0663713 -1.03043e-12)
(0.995556 0.0755498 -1.15245e-12)
(1.01666 0.0836439 -1.19506e-12)
(1.03938 0.0902739 -1.23489e-12)
(1.06378 0.0949312 -1.41934e-12)
(1.09053 0.0982537 -2.4127e-12)
(1.11978 0.100815 -1.36465e-12)
(1.15011 0.101754 -9.75066e-13)
(1.18208 0.101292 -7.48477e-13)
(1.21822 0.101265 -3.7555e-13)
(1.25853 0.100904 -1.3517e-13)
(1.30277 0.0990604 -5.47125e-13)
(1.35106 0.0958805 -4.37217e-12)
(1.40532 0.0916897 -3.01032e-12)
(1.46761 0.0867698 -1.2599e-12)
(1.53767 0.0809019 2.99008e-13)
(1.61656 0.0732535 -5.21999e-12)
(1.70439 0.0647047 -5.27381e-12)
(1.79917 0.0558343 -7.00489e-12)
(1.89934 0.047404 2.15734e-12)
(2.00358 0.0401897 -1.90282e-12)
(2.10928 0.0346959 -1.47857e-12)
(2.21569 0.0304932 -8.63195e-13)
(2.32195 0.0283167 -1.41361e-12)
(2.42615 0.0269713 2.88466e-12)
(2.52749 0.0275787 -1.20341e-11)