/*--------------------------------*- C++ -*----------------------------------*\
| =========                 |                                                 |
| \\      /  F ield         | OpenFOAM: The Open Source CFD Toolbox           |
|  \\    /   O peration     | Version:  2.4.x                                 |
|   \\  /    A nd           | Web:      www.OpenFOAM.org                      |
|    \\/     M anipulation  |                                                 |
\*---------------------------------------------------------------------------*/
FoamFile
{
    version     2.0;
    format      ascii;
    class       volScalarField;
    location    "0.08";
    object      varZ;
}
// * * * * * * * * * * * * * * * * * * * * * * * * * * * * * * * * * * * * * //

dimensions      [0 0 0 0 0 0 0];

internalField   nonuniform List<scalar> 
1250
(
0.00111887
0.00460488
0.00989882
0.0160598
0.0225966
0.0289613
0.0347371
0.0395785
0.0433795
0.0462153
0.0481361
0.0493089
0.0497417
0.0496656
0.0492561
0.0483537
0.047169
0.0457998
0.0442983
0.0427105
0.041079
0.0394325
0.0377993
0.0361963
0.034637
0.0331341
0.0316929
0.0303184
0.0290128
0.0277807
0.0266209
0.0255349
0.0245343
0.0235936
0.0227546
0.0219967
0.02126
0.0207451
0.02019
0.0195943
0.0195431
0.0201346
0.0225755
0.0314897
0.0415806
0.0360606
0.0160186
0.00352121
0.000641062
0.000111961
0.00125895
0.00517027
0.0110336
0.0177282
0.0246824
0.0312413
0.0370279
0.0417256
0.045324
0.0479439
0.0496433
0.0506047
0.050853
0.0506633
0.0500781
0.0490563
0.047792
0.0463535
0.0447952
0.0431616
0.0414925
0.0398156
0.0381582
0.0365352
0.0349588
0.0334416
0.0319881
0.0306026
0.0292873
0.0280464
0.0268791
0.0257866
0.0247803
0.0238353
0.0229927
0.022231
0.021494
0.0209765
0.0204171
0.0198236
0.0197738
0.0203646
0.0228153
0.0317547
0.0415644
0.0359788
0.0159245
0.00350246
0.000637826
0.000111402
0.00167434
0.0068194
0.0142956
0.0223892
0.0302552
0.0370582
0.0426532
0.0468652
0.0498967
0.0519379
0.0530667
0.0535213
0.0533803
0.0528488
0.0518807
0.0506229
0.0491669
0.0475717
0.045886
0.0441496
0.0423972
0.0406528
0.0389407
0.0372732
0.0356586
0.0341088
0.0326272
0.0312172
0.0298799
0.0286197
0.0274356
0.0263288
0.0253098
0.0243555
0.0235049
0.0227351
0.0219974
0.0214745
0.0209056
0.0203187
0.0202733
0.0208549
0.0233376
0.0323496
0.041526
0.0357776
0.0156816
0.00345056
0.000628853
0.000109929
0.00284837
0.0111465
0.0223212
0.0327861
0.0414556
0.0478563
0.0525089
0.0555125
0.0573268
0.0582723
0.0583771
0.0580604
0.0572476
0.0560696
0.0546238
0.0529889
0.0512342
0.049399
0.0475197
0.0456273
0.0437484
0.041901
0.0401053
0.0383688
0.0366964
0.0350947
0.0335697
0.0321214
0.0307506
0.0294607
0.028251
0.0271226
0.0260844
0.0251163
0.0242537
0.0234724
0.0227335
0.0222021
0.0216195
0.021045
0.0210073
0.0215487
0.0241155
0.0332354
0.0414494
0.0354395
0.0152883
0.0033629
0.000613747
0.000107491
0.00774662
0.0243745
0.0422187
0.0537333
0.0609441
0.0649752
0.0671055
0.0677361
0.0675076
0.0667839
0.0655032
0.0639684
0.0621968
0.0602488
0.0581805
0.0560554
0.0539117
0.0517644
0.0496337
0.0475385
0.0454945
0.0435122
0.0416059
0.0397776
0.0380279
0.0363586
0.034773
0.0332735
0.0318579
0.0305288
0.0292856
0.0281291
0.0270661
0.0260803
0.0252023
0.0244068
0.0236661
0.0231231
0.0225241
0.0219691
0.0219428
0.0224299
0.0251068
0.0343303
0.0413067
0.0349416
0.0147636
0.00324197
0.00059294
0.000104169
0.0492017
0.0687616
0.0811342
0.086126
0.0876912
0.0869383
0.0850001
0.0823726
0.0795021
0.0766255
0.0736881
0.0707772
0.0679004
0.0650717
0.0623001
0.0596224
0.0570357
0.0545303
0.0521105
0.0497809
0.0475444
0.0454037
0.0433666
0.0414284
0.0395854
0.037836
0.036178
0.0346148
0.0331457
0.0317701
0.0304873
0.0292977
0.0282061
0.0271997
0.0263045
0.0254935
0.0247501
0.0241927
0.0235771
0.0230497
0.0230392
0.0235296
0.0262582
0.0355042
0.0410611
0.0342518
0.0141381
0.00309185
0.000567128
0.000100077
0.0702525
0.110626
0.119242
0.118056
0.114231
0.108431
0.102505
0.0967678
0.0913824
0.0864711
0.0819108
0.0776789
0.0737378
0.0700516
0.0665942
0.063376
0.0603473
0.0574793
0.0547653
0.0521944
0.0497571
0.0474506
0.0452743
0.0432176
0.0412728
0.0394358
0.0377008
0.036069
0.0345411
0.0331157
0.031791
0.0305665
0.0294455
0.0284176
0.0275045
0.0266787
0.0259322
0.0253584
0.0247284
0.0242372
0.0242445
0.0247716
0.0275327
0.0366569
0.0406894
0.0333756
0.0134187
0.00291759
0.000537262
9.53661e-05
0.0306353
0.114801
0.135541
0.135824
0.131141
0.123427
0.115429
0.107864
0.100885
0.0946025
0.0888835
0.0836812
0.0789303
0.0745746
0.0705774
0.0669099
0.0635052
0.0603234
0.0573519
0.0545654
0.0519458
0.0494876
0.0471805
0.0450099
0.0429663
0.0410438
0.0392349
0.0375399
0.035956
0.0344833
0.0331199
0.0318632
0.0307157
0.0296688
0.0287396
0.0279007
0.0271518
0.0265608
0.0259216
0.0254734
0.0255009
0.0260863
0.0288759
0.0376771
0.0401693
0.0323217
0.0126193
0.00272569
0.000504533
9.02178e-05
0.0171092
0.0859483
0.122448
0.132753
0.132126
0.127538
0.120427
0.113144
0.106066
0.0994694
0.0933667
0.0877848
0.0826663
0.0779806
0.0737053
0.0697696
0.0661228
0.0627344
0.0595855
0.0566445
0.0538912
0.0513193
0.0489091
0.0466451
0.0445207
0.0425281
0.0406589
0.0389155
0.0372903
0.0357808
0.0343885
0.0331079
0.0319418
0.030882
0.0299416
0.0290931
0.0283426
0.0277361
0.0270951
0.0266946
0.0267453
0.0274032
0.0302548
0.0384385
0.0394915
0.031093
0.0117654
0.00252334
0.000470239
8.48307e-05
0.0121089
0.0470785
0.0848637
0.107783
0.117357
0.11872
0.116048
0.111201
0.105581
0.0998634
0.0943481
0.089134
0.0842269
0.0796502
0.0754315
0.0714855
0.0677974
0.0643628
0.0611588
0.0581623
0.0553562
0.0527314
0.0502669
0.0479498
0.04578
0.0437478
0.0418457
0.0400789
0.0384358
0.0369111
0.0355066
0.0342171
0.0330453
0.0319828
0.0310392
0.0301869
0.0294368
0.0288182
0.0281838
0.0278343
0.0279114
0.0286503
0.0315861
0.0388491
0.0386644
0.0296955
0.0108887
0.00231798
0.000435683
7.9406e-05
0.00306591
0.0179013
0.0418669
0.0684565
0.087567
0.0976278
0.101431
0.101126
0.0989877
0.0953696
0.0913509
0.0871904
0.0830412
0.0790231
0.0752139
0.0715657
0.0681109
0.0648532
0.061771
0.058859
0.0561133
0.0535245
0.0510819
0.0487775
0.046615
0.0445895
0.0426958
0.0409415
0.0393114
0.0378018
0.0364106
0.0351337
0.0339746
0.0329235
0.0319879
0.0311399
0.0303948
0.0297694
0.0291516
0.0288567
0.0289653
0.0297929
0.032814
0.0388963
0.0376731
0.028094
0.00999052
0.00211003
0.000400953
7.39451e-05
0.00137987
0.00698906
0.0171612
0.0322174
0.0502897
0.065942
0.0762865
0.0818748
0.084141
0.0840577
0.0828961
0.0807093
0.0780862
0.0752704
0.0723768
0.0694446
0.0665527
0.0637385
0.0609999
0.0583527
0.0558189
0.0533969
0.0510874
0.0488973
0.046825
0.04488
0.0430602
0.0413715
0.0398009
0.0383491
0.0370106
0.0357791
0.0346601
0.0336416
0.0327309
0.0318999
0.0311687
0.0305456
0.02996
0.0297289
0.0298785
0.0308054
0.0338925
0.0385455
0.03643
0.0261759
0.00899658
0.00188764
0.000363891
6.80576e-05
0.000779352
0.00337779
0.00758148
0.0136843
0.0224118
0.0334799
0.0449536
0.054548
0.0612824
0.0654203
0.0675934
0.0682677
0.0679715
0.0670523
0.0656342
0.0639086
0.0620545
0.060093
0.0580467
0.0559609
0.0538923
0.0518528
0.0498561
0.0479203
0.0460574
0.0442948
0.0426379
0.0410874
0.0396448
0.0383118
0.0370812
0.035946
0.0349088
0.0339554
0.0330963
0.0323028
0.0316024
0.0309999
0.0304728
0.0303223
0.0305292
0.0315461
0.0346132
0.0377177
0.0348294
0.0237706
0.00785208
0.00164126
0.000322428
6.13295e-05
0.000485911
0.00190489
0.00391013
0.00654682
0.0100359
0.0146875
0.0206736
0.0277527
0.0349666
0.0413983
0.0464464
0.0500574
0.052382
0.0537199
0.0542847
0.0542159
0.0538344
0.0530756
0.0520513
0.0508374
0.0495281
0.0481336
0.0466829
0.0452106
0.0437485
0.0423328
0.04098
0.039692
0.0384869
0.0373652
0.0363165
0.0353423
0.034436
0.0335887
0.0328163
0.032091
0.0314493
0.0309003
0.0304736
0.0304214
0.030711
0.0318345
0.0346709
0.0362574
0.0327088
0.0208235
0.0065589
0.00137215
0.000276271
5.36115e-05
0.000317801
0.00117085
0.00226243
0.00359065
0.00518623
0.00712681
0.00952518
0.0125306
0.0161878
0.020403
0.0249074
0.0292775
0.0331108
0.0362558
0.0386911
0.0404166
0.0415976
0.0423119
0.042586
0.0425189
0.0422521
0.0417308
0.0410443
0.0402363
0.0393693
0.0384786
0.0375817
0.0366966
0.0358462
0.0350379
0.0342671
0.0335396
0.0328397
0.0321712
0.0315439
0.0309422
0.0304134
0.0299814
0.0297272
0.0297829
0.0302112
0.0314515
0.0337938
0.0340467
0.0297954
0.0173777
0.00516367
0.00108964
0.000226429
4.49725e-05
0.000213258
0.000751392
0.00140158
0.00215401
0.00300479
0.00396273
0.00505075
0.00631113
0.00779345
0.00955303
0.0116325
0.014019
0.0166676
0.0194266
0.0221434
0.0246467
0.0268505
0.0287176
0.0301928
0.0312803
0.032059
0.0325442
0.0327722
0.032767
0.0326646
0.0324331
0.0321169
0.031757
0.0313709
0.0309697
0.0305603
0.0301484
0.0297295
0.0293157
0.0289046
0.0285118
0.028181
0.0279538
0.0279383
0.0281509
0.0287898
0.030132
0.0316564
0.0309899
0.0258478
0.0135218
0.00375762
0.000810464
0.00017523
3.57388e-05
0.000143894
0.000492576
0.000900191
0.00135892
0.00186112
0.00240238
0.00298363
0.00361149
0.00429771
0.00505926
0.00591921
0.0069005
0.0080343
0.00932455
0.010771
0.0123561
0.0140387
0.0157658
0.0174503
0.019011
0.0204075
0.0216051
0.0225837
0.023335
0.0239157
0.024345
0.0246438
0.024846
0.0249732
0.0250382
0.0250513
0.0250286
0.0249697
0.0248865
0.0247865
0.0247039
0.0246864
0.0247533
0.0250003
0.0255157
0.0263707
0.0275978
0.0283016
0.0268526
0.0208511
0.00949675
0.00248417
0.000557724
0.000126346
2.6518e-05
9.65598e-05
0.000324816
0.000586918
0.000877958
0.00119229
0.00152482
0.00187196
0.00223232
0.00260685
0.00299856
0.00341359
0.00385882
0.00434442
0.00488054
0.00548166
0.00615769
0.00691461
0.00775825
0.00868843
0.00968686
0.0107337
0.011795
0.0128311
0.0138013
0.0146896
0.015491
0.016201
0.0168276
0.0173799
0.0178645
0.0182901
0.0186629
0.0189926
0.0192908
0.0195697
0.0198601
0.0202035
0.0206322
0.0212092
0.0219732
0.0229261
0.0238413
0.023813
0.0216027
0.0149568
0.00577467
0.00147254
0.000352004
8.36823e-05
1.80712e-05
6.38467e-05
0.000212732
0.000382395
0.000570073
0.000772304
0.000985429
0.00120605
0.00143141
0.00165967
0.00189015
0.00212354
0.00236093
0.00260476
0.00285849
0.00312769
0.003416
0.00372865
0.0040734
0.0044602
0.0048929
0.0053723
0.00590173
0.00648798
0.00712167
0.00778675
0.00847257
0.00916673
0.00985831
0.010539
0.0112022
0.0118444
0.012463
0.0130612
0.0136442
0.0142228
0.014817
0.0154562
0.0161585
0.0169377
0.0177887
0.0186191
0.0190177
0.0183691
0.0154077
0.0088145
0.00294777
0.000781601
0.000201089
4.99937e-05
1.10995e-05
4.11329e-05
0.000136579
0.000245374
0.000366125
0.000496896
0.000635346
0.000778997
0.000925416
0.00107246
0.0012185
0.00136236
0.00150349
0.00164204
0.00177874
0.00191491
0.00205216
0.00219268
0.0023402
0.00249954
0.0026752
0.00287224
0.00309851
0.00336242
0.00367605
0.00404707
0.00447023
0.00494147
0.00545467
0.00600261
0.00657833
0.00717565
0.00778952
0.00841789
0.00906037
0.00972035
0.0104047
0.0111227
0.0118669
0.0126062
0.0132852
0.0137095
0.0135463
0.0122391
0.00873123
0.0039917
0.00128263
0.000370748
0.000101852
2.62889e-05
5.98129e-06
2.53694e-05
8.44759e-05
0.000152423
0.000228629
0.000312034
0.000401172
0.00049432
0.00058965
0.000685331
0.00077971
0.0008714
0.000959299
0.0010426
0.00112097
0.00119452
0.00126411
0.00133063
0.00139584
0.00146249
0.00153427
0.00161648
0.00171578
0.00183905
0.00199641
0.00219898
0.00244832
0.00274184
0.00307754
0.00345248
0.00386366
0.00430773
0.00478169
0.00528311
0.00580919
0.00635747
0.00692236
0.00749268
0.00803606
0.00849724
0.00876225
0.00868051
0.00799973
0.00618797
0.00352345
0.00144346
0.000493142
0.00015416
4.43509e-05
1.18012e-05
2.74098e-06
1.44803e-05
4.88963e-05
8.93108e-05
0.00013553
0.000186924
0.000242527
0.00030114
0.000361419
0.000421994
0.000481518
0.000538765
0.000592702
0.000642466
0.000687369
0.000727144
0.000761909
0.000792255
0.000819295
0.000845245
0.000873208
0.000907665
0.000954286
0.00101883
0.00110725
0.00122664
0.00137964
0.00156415
0.00177881
0.00202199
0.00229174
0.00258556
0.0029005
0.00323293
0.00357713
0.00392496
0.00426105
0.00456198
0.00478614
0.00486175
0.00475417
0.00430355
0.00338109
0.00217394
0.00109763
0.000455748
0.000165271
5.38633e-05
1.59327e-05
4.34217e-06
1.0249e-06
7.00092e-06
2.48512e-05
4.69027e-05
7.29514e-05
0.000102509
0.000134881
0.000169265
0.000204776
0.000240476
0.000275441
0.000308765
0.000339627
0.000367362
0.000391371
0.000411352
0.000427305
0.000439653
0.000449183
0.000457632
0.000467736
0.00048311
0.000507735
0.000545268
0.000598977
0.00067225
0.000766396
0.000879771
0.001011
0.00115828
0.00131917
0.00149039
0.00166759
0.00184485
0.00201381
0.00216419
0.00227948
0.00233414
0.00231983
0.00220382
0.00192251
0.0015076
0.00102724
0.000592239
0.000288695
0.000121091
4.46097e-05
1.47325e-05
4.41954e-06
1.22399e-06
2.90584e-07
2.03107e-06
8.93e-06
1.90384e-05
3.14237e-05
4.56779e-05
6.1409e-05
7.82926e-05
9.58687e-05
0.000113614
0.000131019
0.000147559
0.000162725
0.000176076
0.000187233
0.000195857
0.000201852
0.000205581
0.00020807
0.000210576
0.000214801
0.000222879
0.000237038
0.00025921
0.000290637
0.000332409
0.000384677
0.000445936
0.000514907
0.000590219
0.000669353
0.000748666
0.000823479
0.000887871
0.000934532
0.000955239
0.000950321
0.000909281
0.000815555
0.000684543
0.000526025
0.000364125
0.000223458
0.000119775
5.57813e-05
2.27743e-05
8.26604e-06
2.71045e-06
8.11623e-07
2.25604e-07
5.27982e-08
7.05842e-08
1.31344e-06
3.2037e-06
5.45203e-06
8.15641e-06
1.12403e-05
1.46875e-05
1.84187e-05
2.22675e-05
2.60922e-05
2.97463e-05
3.30848e-05
3.599e-05
3.83842e-05
4.01169e-05
4.11074e-05
4.15314e-05
4.18713e-05
4.249e-05
4.37705e-05
4.61322e-05
4.99626e-05
5.55331e-05
6.29236e-05
7.2161e-05
8.31716e-05
9.55214e-05
0.000108726
0.000122289
0.000135462
0.000147224
0.000156395
0.000161712
0.000162075
0.000156577
0.000145156
0.000127931
0.00010616
8.21539e-05
5.85476e-05
3.80701e-05
2.23585e-05
1.17629e-05
5.53528e-06
2.36251e-06
9.35837e-07
2.93527e-07
6.67717e-08
1.67319e-08
4.86271e-09
)
;

boundaryField
{
    AXIS
    {
        type            empty;
    }
    OUTLET
    {
        type            zeroGradient;
    }
    COFLOW
    {
        type            fixedValue;
        value           uniform 0;
    }
    PILOT
    {
        type            fixedValue;
        value           uniform 0;
    }
    FUEL
    {
        type            fixedValue;
        value           uniform 0;
    }
    WALL
    {
        type            zeroGradient;
    }
    front
    {
        type            wedge;
    }
    back
    {
        type            wedge;
    }
}


// ************************************************************************* //
