/*--------------------------------*- C++ -*----------------------------------*\
| =========                 |                                                 |
| \\      /  F ield         | OpenFOAM: The Open Source CFD Toolbox           |
|  \\    /   O peration     | Version:  2.4.x                                 |
|   \\  /    A nd           | Web:      www.OpenFOAM.org                      |
|    \\/     M anipulation  |                                                 |
\*---------------------------------------------------------------------------*/
FoamFile
{
    version     2.0;
    format      ascii;
    class       volScalarField;
    location    "0.08";
    object      Z;
}
// * * * * * * * * * * * * * * * * * * * * * * * * * * * * * * * * * * * * * //

dimensions      [0 0 0 0 0 0 0];

internalField   nonuniform List<scalar> 
1250
(
0.997379
0.989514
0.978925
0.966907
0.953701
0.939735
0.925394
0.911173
0.897318
0.883873
0.870806
0.858011
0.845598
0.83355
0.821882
0.810593
0.799552
0.788708
0.778072
0.767639
0.757391
0.747313
0.737386
0.727524
0.717724
0.707995
0.698323
0.688698
0.679111
0.669532
0.659969
0.650386
0.640744
0.631111
0.621225
0.61134
0.601337
0.5906
0.580539
0.569251
0.557592
0.547234
0.526202
0.46996
0.335227
0.184014
0.0714139
0.0172749
0.0033327
0.000603343
0.996974
0.988106
0.976578
0.963644
0.949572
0.934979
0.920232
0.905853
0.891955
0.878533
0.865537
0.852869
0.840605
0.828721
0.817219
0.80608
0.795184
0.78448
0.773983
0.763686
0.753565
0.743606
0.73379
0.724031
0.714328
0.704692
0.695111
0.685575
0.676072
0.666575
0.65709
0.647579
0.638008
0.628438
0.618616
0.608792
0.598833
0.58816
0.578151
0.566903
0.555326
0.544987
0.523936
0.467664
0.333541
0.183181
0.0710932
0.0171968
0.00331785
0.000600658
0.995716
0.984016
0.96988
0.954494
0.938385
0.922586
0.907228
0.892741
0.878938
0.865794
0.853156
0.840911
0.829088
0.817651
0.806582
0.795857
0.78533
0.774979
0.764821
0.754848
0.74503
0.735353
0.725794
0.716277
0.706809
0.697389
0.68802
0.678686
0.669377
0.660067
0.650757
0.641412
0.632
0.622572
0.612892
0.603204
0.593342
0.582811
0.572916
0.561753
0.550354
0.540045
0.518916
0.462478
0.329591
0.181116
0.0702329
0.0169694
0.00327488
0.000593342
0.991827
0.973498
0.953459
0.93369
0.915071
0.898468
0.883178
0.869322
0.856446
0.844322
0.832675
0.821406
0.81052
0.799965
0.789735
0.779775
0.769919
0.760192
0.750619
0.741191
0.731877
0.722669
0.713536
0.704418
0.695333
0.686276
0.677246
0.668236
0.659236
0.650219
0.641186
0.6321
0.622936
0.61373
0.604268
0.594786
0.585076
0.57476
0.565035
0.553994
0.542863
0.532587
0.511304
0.45454
0.323459
0.177811
0.0687973
0.0165775
0.00320145
0.000581079
0.973984
0.940184
0.911342
0.889014
0.871019
0.856511
0.84388
0.832645
0.822326
0.81247
0.802818
0.793375
0.784146
0.7751
0.766238
0.757477
0.74867
0.739906
0.731215
0.722598
0.71403
0.705508
0.696999
0.688461
0.67992
0.671393
0.662857
0.654307
0.645741
0.637135
0.628484
0.619757
0.610934
0.602027
0.592864
0.583656
0.574154
0.564128
0.55462
0.543741
0.532961
0.522712
0.501196
0.443996
0.315329
0.173355
0.066814
0.0160294
0.00309951
0.000564257
0.798782
0.825876
0.817357
0.8078
0.79939
0.792826
0.786917
0.781098
0.775298
0.769272
0.762935
0.756355
0.749634
0.74279
0.735868
0.728771
0.721438
0.714015
0.706542
0.699032
0.691477
0.683885
0.676218
0.668459
0.660643
0.652803
0.644936
0.637004
0.629007
0.620935
0.61278
0.604515
0.596129
0.587603
0.578815
0.569945
0.560715
0.551049
0.541797
0.531124
0.520771
0.510541
0.488713
0.431033
0.305443
0.16787
0.0643311
0.0153415
0.00297235
0.000543445
0.502828
0.64156
0.677064
0.693759
0.703115
0.709248
0.713238
0.715339
0.715839
0.715137
0.713311
0.710537
0.70711
0.703147
0.698756
0.693768
0.688327
0.682629
0.676707
0.670605
0.664342
0.657927
0.651327
0.644553
0.637649
0.630664
0.623617
0.61647
0.60919
0.60178
0.594236
0.586539
0.578683
0.570626
0.562286
0.55381
0.544917
0.535677
0.526711
0.516298
0.506443
0.496218
0.474011
0.415882
0.294104
0.161507
0.0614113
0.0145365
0.00282459
0.000519399
0.320041
0.452078
0.516577
0.560144
0.590215
0.611114
0.626808
0.638142
0.646206
0.651535
0.654948
0.65674
0.657179
0.656708
0.655369
0.652893
0.649729
0.646109
0.642036
0.63762
0.632906
0.627893
0.622571
0.616979
0.611169
0.605208
0.599127
0.592903
0.586493
0.579873
0.573053
0.566026
0.558788
0.551282
0.543466
0.535438
0.526944
0.518187
0.509528
0.499446
0.490148
0.479908
0.457286
0.398815
0.281657
0.154428
0.0581326
0.0136435
0.00266207
0.000493047
0.239624
0.280355
0.353275
0.418694
0.468153
0.504351
0.531966
0.552876
0.568835
0.58069
0.589784
0.596457
0.601205
0.604431
0.606322
0.60673
0.606242
0.604998
0.603002
0.600511
0.59757
0.594145
0.590291
0.586065
0.581519
0.576739
0.571767
0.566578
0.561154
0.555456
0.549462
0.543202
0.536662
0.529782
0.522559
0.515036
0.507007
0.498775
0.49044
0.480779
0.472081
0.461805
0.438764
0.380312
0.268347
0.14681
0.0545846
0.0126955
0.00249123
0.000465401
0.134232
0.137485
0.201795
0.280232
0.3444
0.394036
0.432524
0.462635
0.486154
0.504512
0.519336
0.530934
0.540082
0.547174
0.552422
0.556008
0.558389
0.559743
0.56006
0.559724
0.558763
0.557086
0.554889
0.552217
0.549084
0.545624
0.541886
0.537829
0.533472
0.528798
0.523725
0.518316
0.512543
0.506357
0.499783
0.492821
0.485333
0.477659
0.469674
0.460544
0.45246
0.442131
0.418709
0.360852
0.254441
0.138832
0.0508704
0.0117276
0.00231855
0.000437497
0.017697
0.0471248
0.0918794
0.157641
0.224864
0.282554
0.329576
0.367597
0.398086
0.422732
0.442937
0.459402
0.472967
0.48399
0.492696
0.499713
0.505321
0.509549
0.512503
0.514514
0.515711
0.516034
0.515739
0.51485
0.513279
0.511292
0.508929
0.506108
0.502917
0.499351
0.495309
0.490847
0.485921
0.480508
0.474652
0.468321
0.461462
0.454394
0.446827
0.438374
0.430898
0.420498
0.396785
0.340249
0.239779
0.130401
0.0469797
0.0107427
0.00214442
0.000409331
0.00499915
0.0177888
0.0371113
0.0706061
0.119085
0.173142
0.223102
0.266332
0.302622
0.333021
0.358268
0.379553
0.397472
0.41251
0.424933
0.435543
0.444503
0.451815
0.457696
0.462414
0.466093
0.468765
0.470614
0.471714
0.471983
0.471714
0.470936
0.469505
0.467646
0.465333
0.462459
0.459083
0.455129
0.450612
0.445588
0.440006
0.43391
0.427534
0.420521
0.412955
0.406081
0.395583
0.371763
0.317383
0.223436
0.120913
0.0426583
0.0096813
0.00195735
0.00037878
0.00218819
0.00824662
0.0166946
0.0299608
0.0515809
0.0836173
0.123147
0.164168
0.202221
0.236184
0.265668
0.291315
0.313327
0.332313
0.348616
0.362726
0.374958
0.385434
0.394404
0.402067
0.408481
0.413745
0.41803
0.421388
0.423794
0.425423
0.426401
0.426587
0.426286
0.425407
0.423831
0.421708
0.418873
0.415413
0.411366
0.4067
0.401543
0.396011
0.389757
0.383325
0.377046
0.366429
0.342881
0.29142
0.204603
0.10975
0.0376517
0.0084899
0.0017457
0.000343478
0.00121101
0.00451963
0.00883121
0.0147417
0.0233335
0.0361865
0.0549402
0.0801946
0.109899
0.141011
0.170861
0.198448
0.223171
0.24524
0.264863
0.282174
0.297581
0.311245
0.323287
0.333913
0.343166
0.351165
0.358042
0.363814
0.368495
0.372215
0.375127
0.377169
0.378516
0.379134
0.379009
0.378311
0.376734
0.374508
0.371604
0.368064
0.364059
0.35956
0.354398
0.349249
0.343511
0.332931
0.310318
0.262183
0.182997
0.0965891
0.0319007
0.00716585
0.00150681
0.000302425
0.000762988
0.00276563
0.00526289
0.00840003
0.0124601
0.0178944
0.0253411
0.0356803
0.0496763
0.0676281
0.0888669
0.111919
0.135035
0.157321
0.17828
0.197553
0.215235
0.231459
0.246148
0.25941
0.271337
0.281987
0.2914
0.299589
0.306566
0.312468
0.317393
0.321336
0.324413
0.326653
0.328088
0.328745
0.328586
0.327858
0.326282
0.324133
0.321539
0.318367
0.314642
0.310767
0.305585
0.295492
0.274472
0.229718
0.15856
0.0812987
0.0255324
0.00574801
0.00124509
0.000255815
0.000515234
0.00181202
0.00338375
0.00526433
0.00753122
0.010311
0.0137862
0.0182195
0.0239481
0.031383
0.0409419
0.052866
0.0671044
0.0831514
0.100307
0.117777
0.135044
0.151811
0.167708
0.182538
0.196298
0.208957
0.220438
0.230698
0.239715
0.247584
0.254337
0.260042
0.264785
0.268624
0.271634
0.273849
0.275281
0.276074
0.276074
0.275686
0.274784
0.27327
0.271179
0.268557
0.264203
0.255126
0.235835
0.194373
0.131557
0.0640904
0.0189292
0.00432166
0.000972496
0.000205313
0.00035972
0.00123584
0.00227656
0.00349029
0.00489817
0.00653693
0.00846264
0.0107529
0.0135102
0.0168666
0.0209915
0.0260766
0.0323511
0.0399683
0.0490195
0.0595057
0.0712964
0.0841391
0.0975792
0.111181
0.12462
0.137618
0.149893
0.16121
0.171446
0.180596
0.188668
0.195757
0.201942
0.207277
0.211835
0.215665
0.218805
0.221342
0.223251
0.224677
0.225687
0.226014
0.225621
0.224287
0.22101
0.21311
0.195002
0.156791
0.102574
0.0458074
0.0127491
0.00301165
0.000709621
0.000154267
0.000254255
0.00085979
0.00156942
0.00238619
0.00331639
0.00437137
0.00556858
0.00693303
0.00849869
0.0103089
0.0124209
0.0148995
0.0178285
0.0213016
0.0254324
0.0303302
0.0361008
0.0428373
0.0505653
0.0592226
0.0686953
0.0787401
0.0890204
0.0991673
0.108857
0.117953
0.126355
0.134079
0.141151
0.147599
0.153456
0.15874
0.163483
0.167715
0.171434
0.174669
0.177453
0.17954
0.180435
0.180054
0.177682
0.170355
0.152494
0.11816
0.0725171
0.0284977
0.00770844
0.00193024
0.000477305
0.00010686
0.000179272
0.000600573
0.00109077
0.00165197
0.00228687
0.00299949
0.00379587
0.00468447
0.00567702
0.00678923
0.00804231
0.00946071
0.0110761
0.012926
0.0150607
0.0175307
0.0203999
0.0237482
0.0276575
0.0321807
0.0373446
0.0431475
0.0495649
0.0564482
0.0635414
0.0707098
0.0778027
0.0847553
0.0915096
0.0980171
0.10424
0.110138
0.115688
0.120856
0.125604
0.129881
0.133625
0.136521
0.137988
0.137844
0.135444
0.127611
0.109582
0.0800534
0.0433941
0.0150244
0.00419098
0.00112585
0.000291223
6.70964e-05
0.000124354
0.00041504
0.000753037
0.00114045
0.00157924
0.00207135
0.00261918
0.00322575
0.00389528
0.00463374
0.00544901
0.00635149
0.00735548
0.0084784
0.00974344
0.0111795
0.0128201
0.0147105
0.016902
0.0194418
0.0223696
0.0257137
0.0294975
0.0337379
0.0383588
0.0432661
0.0483574
0.0535926
0.0589105
0.0642507
0.0695486
0.0747383
0.0797573
0.0845294
0.0889654
0.0929475
0.0963254
0.0987143
0.0995752
0.0988504
0.0952191
0.0859482
0.0688692
0.0448938
0.020399
0.00679736
0.00205159
0.000587315
0.000157773
3.72884e-05
8.33012e-05
0.000278737
0.000507716
0.000772485
0.0010747
0.00141556
0.00179608
0.00221737
0.00268081
0.00318854
0.00374382
0.00435127
0.00501724
0.00575043
0.00656342
0.00747485
0.00850624
0.0096862
0.0110503
0.012636
0.0144825
0.0166205
0.0190637
0.0218373
0.0249378
0.0283034
0.0318405
0.0355243
0.0393086
0.0431455
0.0469791
0.0507498
0.0543907
0.0578155
0.0609187
0.0635337
0.0654739
0.0663185
0.0659055
0.0636862
0.0581433
0.0483348
0.0343024
0.0188026
0.00777778
0.00274504
0.000891644
0.000266898
7.3921e-05
1.78486e-05
5.21008e-05
0.000176817
0.000326139
0.000502208
0.000706292
0.000939048
0.00120077
0.00149161
0.00181182
0.00216191
0.00254303
0.00295751
0.00340857
0.00390038
0.0044402
0.00503934
0.00571297
0.00648051
0.00736866
0.00840855
0.00963357
0.011073
0.0127402
0.0146422
0.0167763
0.0191007
0.0215302
0.0240337
0.0265659
0.0290787
0.0315188
0.0338288
0.0359427
0.0377727
0.0392264
0.0401246
0.0402687
0.039682
0.0376951
0.0338362
0.0280047
0.0204794
0.0125238
0.00623506
0.0026287
0.000981827
0.000331537
0.000101906
2.89079e-05
7.09789e-06
2.79022e-05
9.9685e-05
0.000190469
0.000301516
0.000433385
0.000586142
0.000759739
0.000953992
0.00116862
0.0014036
0.00165915
0.00193601
0.00223582
0.00256072
0.002915
0.00330579
0.00374366
0.00424157
0.00481834
0.00549856
0.0063081
0.00726779
0.00838552
0.00965825
0.0110752
0.0126021
0.0141713
0.015746
0.0172774
0.0187142
0.020004
0.0210931
0.0219251
0.0224117
0.0224921
0.0222076
0.021246
0.0195211
0.017002
0.0137896
0.0101284
0.00656654
0.00368836
0.00179438
0.000764962
0.000289661
9.89457e-05
3.08218e-05
8.88798e-06
2.19658e-06
9.19055e-06
4.08307e-05
8.91368e-05
0.000151474
0.000227665
0.000317715
0.000422048
0.000540443
0.000672593
0.00081842
0.00097783
0.00115084
0.0013379
0.00153959
0.00175728
0.00199509
0.00226104
0.00256481
0.00291751
0.00333509
0.00383484
0.0044285
0.0051165
0.0058889
0.00673064
0.00761585
0.00849658
0.00933813
0.0100992
0.0107353
0.0112016
0.0114553
0.0114878
0.0113208
0.0107738
0.00987614
0.00869311
0.00727525
0.00568481
0.00411719
0.00271737
0.00161208
0.000850057
0.000396192
0.000164116
6.11093e-05
2.07233e-05
6.44795e-06
1.86745e-06
4.54793e-07
3.71119e-07
7.4439e-06
2.10653e-05
4.16795e-05
6.96496e-05
0.000105244
0.000148795
0.000200659
0.000260981
0.000329611
0.000405901
0.000488107
0.000574863
0.000669291
0.000771224
0.000880802
0.00100077
0.00113712
0.00129506
0.00147944
0.00169396
0.00193957
0.00221311
0.00250636
0.00280825
0.00310476
0.00337468
0.00359976
0.00376201
0.00384487
0.00383458
0.00372366
0.00351172
0.00320303
0.00280872
0.00236097
0.00189491
0.001443
0.00103007
0.000689583
0.000428654
0.000246402
0.00013117
5.86927e-05
1.95768e-05
6.52403e-06
2.51116e-06
7.54758e-07
1.87422e-07
4.04483e-08
)
;

boundaryField
{
    AXIS
    {
        type            empty;
    }
    OUTLET
    {
        type            inletOutlet;
        inletValue      uniform 0;
        value           nonuniform List<scalar> 
25
(
0.000603343
0.000600658
0.000593342
0.000581079
0.000564257
0.000543445
0.000519399
0.000493047
0.000465401
0.000437497
0.000409331
0.00037878
0.000343478
0.000302425
0.000255815
0.000205313
0.000154267
0.00010686
6.70964e-05
3.72884e-05
1.78486e-05
7.09789e-06
2.19658e-06
4.54793e-07
4.04483e-08
)
;
    }
    COFLOW
    {
        type            fixedValue;
        value           uniform 0;
    }
    PILOT
    {
        type            fixedValue;
        value           uniform 0.271;
    }
    FUEL
    {
        type            fixedValue;
        value           uniform 1;
    }
    WALL
    {
        type            zeroGradient;
    }
    front
    {
        type            wedge;
    }
    back
    {
        type            wedge;
    }
}


// ************************************************************************* //
