/*--------------------------------*- C++ -*----------------------------------*\
| =========                 |                                                 |
| \\      /  F ield         | OpenFOAM: The Open Source CFD Toolbox           |
|  \\    /   O peration     | Version:  2.4.x                                 |
|   \\  /    A nd           | Web:      www.OpenFOAM.org                      |
|    \\/     M anipulation  |                                                 |
\*---------------------------------------------------------------------------*/
FoamFile
{
    version     2.0;
    format      ascii;
    class       volScalarField;
    location    "0.05";
    object      alphat;
}
// * * * * * * * * * * * * * * * * * * * * * * * * * * * * * * * * * * * * * //

dimensions      [1 -1 -1 0 0 0 0];

internalField   nonuniform List<scalar> 
1250
(
0.0365527
0.0208667
0.0128067
0.00837498
0.00598255
0.00466736
0.00384761
0.00328582
0.00285614
0.00250524
0.00222123
0.00201051
0.00182718
0.00166994
0.00153363
0.00140739
0.00130922
0.001226
0.00115201
0.0010844
0.00102353
0.000967714
0.00091755
0.000878992
0.000835473
0.000799435
0.000770832
0.000725497
0.000719455
0.000734517
0.000764917
0.000889827
0.00133822
0.00168839
0.00203814
0.00165026
0.00124747
0.00146293
0.00186028
0.00200124
0.00202368
0.0020245
0.00202315
0.00202319
0.00202408
0.00202524
0.00202623
0.00202626
0.0020252
0.00202335
0.0351326
0.0190103
0.0113329
0.00736721
0.00534144
0.00424547
0.00356342
0.00308441
0.00269028
0.00238058
0.00213055
0.00193871
0.00177069
0.00162497
0.00149341
0.00137953
0.00128602
0.00120694
0.0011357
0.00107078
0.00101219
0.000958134
0.000909669
0.000872531
0.000831823
0.000796549
0.000768657
0.000723874
0.000718353
0.000734649
0.000766047
0.000892564
0.00134528
0.00169253
0.00203992
0.00164822
0.00124769
0.00146483
0.00186134
0.00200136
0.00202357
0.00202435
0.002023
0.00202302
0.00202391
0.00202508
0.00202607
0.00202609
0.002025
0.0020232
0.0312971
0.0148319
0.00838095
0.00555176
0.00424865
0.00353243
0.00306475
0.00268589
0.0023926
0.00215566
0.00196115
0.00180148
0.00165903
0.00153183
0.00142026
0.00132113
0.00123866
0.00116742
0.0011024
0.0010427
0.00098848
0.000938329
0.000893269
0.000858858
0.000822903
0.000790452
0.000763841
0.000720354
0.000716563
0.000734075
0.000768544
0.000900326
0.00136264
0.00170247
0.00204301
0.00164211
0.0012484
0.00147087
0.00186443
0.00200173
0.00202333
0.00202402
0.00202267
0.00202268
0.00202357
0.00202474
0.00202572
0.00202573
0.00202463
0.00202288
0.0229873
0.00902181
0.00511584
0.00379995
0.00321876
0.00280448
0.00252292
0.00227044
0.00207933
0.00190727
0.00175967
0.00163677
0.00152505
0.00142245
0.00132939
0.00124639
0.00117715
0.00111542
0.00105809
0.00100499
0.000956662
0.000911651
0.000871245
0.000840057
0.000807802
0.000782137
0.000757109
0.000715908
0.000714402
0.000731303
0.000773195
0.000915972
0.00139125
0.00171804
0.0020455
0.0016315
0.00124953
0.00148181
0.00186981
0.00200239
0.00202299
0.00202354
0.00202218
0.0020222
0.00202309
0.00202425
0.00202519
0.00202518
0.00202409
0.0020224
0.010166
0.00385103
0.00306867
0.00273244
0.00249955
0.00227448
0.00212228
0.00194891
0.00180555
0.001681
0.00157611
0.00148119
0.00139353
0.00131204
0.0012359
0.00116688
0.00111028
0.00105764
0.00100847
0.000962577
0.000920609
0.000881373
0.000845928
0.000818148
0.000789697
0.000768043
0.000749076
0.000710911
0.000713262
0.000732257
0.00078049
0.000941666
0.00143217
0.00173882
0.00204581
0.00161542
0.00125141
0.00149791
0.0018774
0.00200332
0.00202254
0.0020229
0.00202154
0.00202156
0.00202245
0.0020236
0.0020245
0.00202444
0.00202338
0.00202177
0.00220971
0.00227156
0.00228088
0.00216714
0.00206292
0.00191422
0.00179717
0.0016806
0.00157684
0.00148863
0.00141517
0.00134457
0.00127737
0.00120977
0.00114678
0.00109055
0.00104396
0.000999766
0.000958089
0.000919068
0.000883389
0.000849802
0.00081942
0.000794861
0.000770397
0.000752412
0.00073601
0.000705786
0.00071406
0.000735749
0.000792669
0.000984899
0.00146337
0.00176473
0.00203981
0.00159478
0.00125459
0.00151922
0.00188694
0.00200444
0.00202197
0.00202211
0.00202075
0.00202079
0.00202167
0.00202278
0.00202363
0.00202354
0.00202251
0.002021
0.000828915
0.00149025
0.00174351
0.00177243
0.00175413
0.00163997
0.00155817
0.00147389
0.00139416
0.00132784
0.00127031
0.00121494
0.00116267
0.00111303
0.00106542
0.00101988
0.000981109
0.000944177
0.000909204
0.000876575
0.000846624
0.000818366
0.000792677
0.000771249
0.000750879
0.000736704
0.000722353
0.000698437
0.000716705
0.00074198
0.000806868
0.0010406
0.0014931
0.00179339
0.00202999
0.00156902
0.00125993
0.0015456
0.00189801
0.00200567
0.00202128
0.00202118
0.00201983
0.00201987
0.00202073
0.00202181
0.00202259
0.00202247
0.00202151
0.00202008
0.000338073
0.00103359
0.00133201
0.0014371
0.00145963
0.00140602
0.00135215
0.0012916
0.00123308
0.00118596
0.0011424
0.00110028
0.00106007
0.00102162
0.000986169
0.000954956
0.000922836
0.000892148
0.000863144
0.000836123
0.000811137
0.000787656
0.000766512
0.000748033
0.000731713
0.000721368
0.000709459
0.00069325
0.000719766
0.000748183
0.000827115
0.00110767
0.00152028
0.00182211
0.00201493
0.00154208
0.00127022
0.00157657
0.00191007
0.00200689
0.00202044
0.0020201
0.00201878
0.00201882
0.00201965
0.00202069
0.00202137
0.00202124
0.00202037
0.00201902
0.000341901
0.000752906
0.000996173
0.00111899
0.0011796
0.00118381
0.00115703
0.00112812
0.00108976
0.00105988
0.00102765
0.00099596
0.000965374
0.000936513
0.000910558
0.000888898
0.000866039
0.000841155
0.00081771
0.000796071
0.000776026
0.000757473
0.000740932
0.000726292
0.000713619
0.000707043
0.000698148
0.000691573
0.000726363
0.000758493
0.000854126
0.00117979
0.0015488
0.00185034
0.00199281
0.00151723
0.00128825
0.00161131
0.00192254
0.002008
0.00201946
0.00201888
0.00201759
0.00201764
0.00201843
0.0020194
0.00201997
0.00201986
0.00201912
0.00201783
0.000647454
0.000682279
0.000765494
0.000857077
0.000929116
0.000962237
0.000966972
0.000962556
0.000941494
0.000926199
0.000903817
0.000884532
0.000864676
0.000845296
0.000829488
0.000819101
0.000806082
0.000788138
0.00077056
0.000754364
0.000739475
0.000726296
0.000714993
0.00070511
0.000696841
0.000694079
0.000689443
0.000694442
0.000735757
0.000774493
0.000890693
0.00125383
0.00158183
0.00187737
0.00196461
0.00149155
0.00131162
0.00164865
0.00193478
0.0020089
0.00201833
0.00201752
0.00201627
0.00201632
0.00201708
0.00201796
0.00201839
0.00201832
0.00201774
0.0020165
0.00285408
0.00112677
0.00073612
0.000684744
0.000724818
0.000768017
0.000793365
0.000807735
0.000811067
0.000812462
0.000795241
0.000786183
0.000772857
0.00076033
0.000752407
0.000747717
0.00074085
0.000730865
0.00072132
0.00071218
0.000703602
0.000695917
0.000689642
0.000684526
0.000681232
0.000682858
0.000684478
0.000702915
0.000747
0.00079977
0.000943208
0.00131518
0.00161743
0.00190096
0.00192871
0.0014656
0.00134164
0.00168841
0.00194663
0.00200955
0.002017
0.00201595
0.00201475
0.00201484
0.00201558
0.00201631
0.00201656
0.00201654
0.0020162
0.00201499
0.0058089
0.00234529
0.00113353
0.000713427
0.000617494
0.000616106
0.000636906
0.000663725
0.000679071
0.000691699
0.000694589
0.000699014
0.000694438
0.000692102
0.00069271
0.000686239
0.000680808
0.000676924
0.000672881
0.000669376
0.000666309
0.000664083
0.000663311
0.000663852
0.000666644
0.000673674
0.000684245
0.000716635
0.00076246
0.000831819
0.00102181
0.00137632
0.00165591
0.00192249
0.0018804
0.00144274
0.00138175
0.00173236
0.00195847
0.00200991
0.00201537
0.00201407
0.00201291
0.00201304
0.00201379
0.00201436
0.00201451
0.00201457
0.00201436
0.00201319
0.00776983
0.00411326
0.00219458
0.00122312
0.000771591
0.000594054
0.000543768
0.000543602
0.000557493
0.000575828
0.000587833
0.000598393
0.000604477
0.000609948
0.000616018
0.000616825
0.000619831
0.000623778
0.000625443
0.00062747
0.000630024
0.000633561
0.000638684
0.000645783
0.00065595
0.000670608
0.000695365
0.00073665
0.000790387
0.000891579
0.00111781
0.00142686
0.00169585
0.00193197
0.00182051
0.00142131
0.00143625
0.00178133
0.00197034
0.00200989
0.00201332
0.00201175
0.00201064
0.00201083
0.00201162
0.00201208
0.00201218
0.00201225
0.0020121
0.00201098
0.00887849
0.00585955
0.00372405
0.00234628
0.00146774
0.000946784
0.0006679
0.000543934
0.000498361
0.000487806
0.000491884
0.000502111
0.000512896
0.000523496
0.000534474
0.000543287
0.000552899
0.00056336
0.000571313
0.000580968
0.000591078
0.000602902
0.000616219
0.000632668
0.000653135
0.00067874
0.000716376
0.000770471
0.000843865
0.000977542
0.00121327
0.00148146
0.00173523
0.00192878
0.00174859
0.00140996
0.00150961
0.00183385
0.00198152
0.00200928
0.00201072
0.00200887
0.00200783
0.0020081
0.00200893
0.0020093
0.00200936
0.00200941
0.00200928
0.00200822
0.00951122
0.00725791
0.00532979
0.00381737
0.00268583
0.00185737
0.00127157
0.000888112
0.000657828
0.000532407
0.000476107
0.000454319
0.000451444
0.000456606
0.000467762
0.000480952
0.000495675
0.000512039
0.000527636
0.000544431
0.00056288
0.000584123
0.000606873
0.000634319
0.000666901
0.000706432
0.000759264
0.00083172
0.000933614
0.00108436
0.00129883
0.00154379
0.00177201
0.00190626
0.00166406
0.0014197
0.00160466
0.0018868
0.00199105
0.00200774
0.00200734
0.00200523
0.00200428
0.00200464
0.00200551
0.00200578
0.00200578
0.00200581
0.00200566
0.00200469
0.0098853
0.00826678
0.00669688
0.0052981
0.00410144
0.00311036
0.00231939
0.00170178
0.00124325
0.000917558
0.000700582
0.00056388
0.000494738
0.000461276
0.000453134
0.000459422
0.000473409
0.000492387
0.000514327
0.000539005
0.000566417
0.000597171
0.000631305
0.000670264
0.000715558
0.000769568
0.000837429
0.000925168
0.00104368
0.00119965
0.0013889
0.00159664
0.00179523
0.00184944
0.00158842
0.0014646
0.00171576
0.00193359
0.00199722
0.00200466
0.00200277
0.00200042
0.00199957
0.00200006
0.00200101
0.00200116
0.00200101
0.00200097
0.0020008
0.00199996
0.0101117
0.00894999
0.00772461
0.00652964
0.00541438
0.00440441
0.00351122
0.00275735
0.00213486
0.00163911
0.00125988
0.000977462
0.000778991
0.00065087
0.000585205
0.000562338
0.00055775
0.000566294
0.000583646
0.000607687
0.000637406
0.000672197
0.0007122
0.000757904
0.000810701
0.000873146
0.000949475
0.00104461
0.00116468
0.00130449
0.00146448
0.00164837
0.00179941
0.00175981
0.00153774
0.00157676
0.0018283
0.00196788
0.00199838
0.00199915
0.00199621
0.00199362
0.00199289
0.00199351
0.00199418
0.00199416
0.00199409
0.00199403
0.00199381
0.00199316
0.0102489
0.00938877
0.00842848
0.00743185
0.00643978
0.00548345
0.00458547
0.00376802
0.00304169
0.00243418
0.00193169
0.00153565
0.00123281
0.00101753
0.000882741
0.000820359
0.000785098
0.000770541
0.000771127
0.000782936
0.000803632
0.000831905
0.000866761
0.000908432
0.000958311
0.00101812
0.00109083
0.00118065
0.00128794
0.00140368
0.00153752
0.00169159
0.00176916
0.00166037
0.00155993
0.00172791
0.00191739
0.00198458
0.00199268
0.00198956
0.001986
0.0019832
0.0019825
0.00198341
0.00198364
0.00198325
0.00198326
0.00198313
0.00198289
0.00198255
0.0103287
0.00965044
0.00886487
0.00801684
0.00713558
0.00625078
0.00538425
0.00455649
0.00378652
0.00309249
0.00249583
0.00202531
0.00165364
0.00137873
0.00121228
0.00111427
0.00105624
0.00102508
0.00101211
0.00101239
0.00102249
0.00104034
0.00106516
0.00109733
0.00113766
0.00118714
0.00124791
0.00132222
0.00140565
0.00149435
0.00161144
0.00170412
0.00169716
0.00161804
0.00168886
0.00186919
0.00196326
0.00198069
0.00197726
0.00197255
0.00196875
0.00196576
0.00196489
0.00196586
0.00196604
0.00196519
0.00196455
0.00196439
0.00196444
0.00196456
0.0103681
0.00977686
0.00908432
0.00832537
0.00752245
0.00669705
0.00586913
0.00505774
0.00428236
0.0035638
0.00293227
0.00240165
0.00198369
0.00167157
0.00147375
0.0013582
0.00129013
0.00125304
0.00123613
0.00123227
0.00123749
0.00124933
0.00126725
0.00129093
0.00132123
0.00135863
0.00140454
0.00145773
0.00151056
0.00158694
0.00165516
0.00167628
0.00165783
0.00170369
0.00184793
0.00193922
0.00195895
0.00195331
0.00194607
0.00194116
0.00193735
0.00193427
0.00193303
0.00193353
0.00193333
0.00193215
0.00193143
0.00193156
0.00193181
0.00193209
0.010365
0.00976849
0.00908124
0.00834395
0.0075782
0.00680073
0.00602465
0.00526191
0.0045301
0.00384261
0.00321861
0.00267989
0.00224439
0.00190224
0.001673
0.00154617
0.00147242
0.00143339
0.00141697
0.00141429
0.00141986
0.00143083
0.00144582
0.00146452
0.00148721
0.00151408
0.00154389
0.00157219
0.00161389
0.00164425
0.00166511
0.00168333
0.0017423
0.00184659
0.00190809
0.0019164
0.00190474
0.00189323
0.00188579
0.00188109
0.00187734
0.00187434
0.00187274
0.00187178
0.00187083
0.00186979
0.00187004
0.00187068
0.00187109
0.00187083
0.0102837
0.00951343
0.00871053
0.00791978
0.00716046
0.00643707
0.00574642
0.00508477
0.00445262
0.00385604
0.00330342
0.0028118
0.00239996
0.00207793
0.00182882
0.00167394
0.00159315
0.00155338
0.00153754
0.00153605
0.00154249
0.00155493
0.0015697
0.00158575
0.00160305
0.00161741
0.00163327
0.00165067
0.00166548
0.00168115
0.00170852
0.00176797
0.00181875
0.00183564
0.00182354
0.00180341
0.00178687
0.00177593
0.0017691
0.00176442
0.00176052
0.00175756
0.0017552
0.0017534
0.00175234
0.00175145
0.00175215
0.00175261
0.00175234
0.00175188
0.00988053
0.00854926
0.00747104
0.0065879
0.00587447
0.0052742
0.00474912
0.00427287
0.00382644
0.00341196
0.00301575
0.00264753
0.0023249
0.00206025
0.00185919
0.00170429
0.00161622
0.00157413
0.00155488
0.00155054
0.00155738
0.00156938
0.00158185
0.00159414
0.00160276
0.00161498
0.00162148
0.00163523
0.0016506
0.00166605
0.00167463
0.00166808
0.00164588
0.00161727
0.0015917
0.00157243
0.00155887
0.00154959
0.00154327
0.00153854
0.00153463
0.0015317
0.00152977
0.00152839
0.00152733
0.00152586
0.00152569
0.00152612
0.00152595
0.00152539
0.00741778
0.0051874
0.00421342
0.00363198
0.003274
0.00298409
0.00275689
0.00257207
0.00239598
0.00222714
0.00205582
0.00187581
0.00171496
0.00158065
0.00147872
0.00141217
0.00136754
0.00134828
0.0013418
0.00133929
0.00134676
0.00135907
0.00137019
0.00138045
0.0013739
0.00135877
0.0013365
0.00130608
0.00126924
0.00125122
0.00123448
0.00120464
0.00117693
0.00115246
0.00113524
0.00112391
0.00111571
0.00110947
0.00110481
0.00110104
0.00109794
0.00109587
0.00109471
0.00109368
0.00109284
0.00109161
0.00109102
0.00109125
0.00109126
0.0010909
0.000679084
0.000631249
0.000574661
0.000529234
0.000491988
0.000461851
0.000431597
0.000405548
0.000387402
0.000370823
0.000355761
0.000342394
0.000331098
0.000322204
0.000315842
0.000311797
0.000309552
0.000308673
0.000308653
0.000309058
0.000309568
0.000309918
0.0003099
0.000309327
0.00030814
0.000306454
0.000304408
0.000302199
0.000300055
0.000298143
0.000296497
0.000295154
0.000294121
0.000293352
0.000292796
0.000292384
0.000292067
0.000291821
0.000291631
0.000291485
0.000291374
0.000291302
0.00029126
0.000291233
0.000291214
0.000291192
0.000291173
0.000291164
0.00029116
0.00029115
)
;

boundaryField
{
    AXIS
    {
        type            empty;
    }
    OUTLET
    {
        type            calculated;
        value           nonuniform List<scalar> 
25
(
0.00202336
0.00202321
0.00202289
0.00202241
0.00202178
0.002021
0.00202008
0.00201902
0.00201783
0.0020165
0.002015
0.0020132
0.00201098
0.00200822
0.0020047
0.00199996
0.00199317
0.00198255
0.00196456
0.00193209
0.00187084
0.00175188
0.00152539
0.0010909
0.00029115
)
;
    }
    COFLOW
    {
        type            calculated;
        value           nonuniform List<scalar> 
15
(
0.0106216
0.0106216
0.0106215
0.0106215
0.0106214
0.0106214
0.0106214
0.0106214
0.0106214
0.0106214
0.0106214
0.0106214
0.0106214
0.0106214
0.0106214
)
;
    }
    PILOT
    {
        type            calculated;
        value           nonuniform List<scalar> 5(0.00141082 0.00141085 0.00141097 0.00141102 0.00141105);
    }
    FUEL
    {
        type            calculated;
        value           nonuniform List<scalar> 5(0.0472817 0.0472803 0.0472861 0.047303 0.0473135);
    }
    WALL
    {
        type            compressible::alphatWallFunction;
        Prt             0.85;
        value           nonuniform List<scalar> 
50
(
9.62057e-05
8.91119e-05
8.06326e-05
7.37485e-05
6.8046e-05
6.33892e-05
5.86727e-05
5.45746e-05
5.16963e-05
4.90491e-05
4.66286e-05
4.44678e-05
4.263e-05
4.1172e-05
4.01177e-05
3.94344e-05
3.9041e-05
3.887e-05
3.88411e-05
3.88866e-05
3.89568e-05
3.90108e-05
3.90155e-05
3.89416e-05
3.878e-05
3.85462e-05
3.82582e-05
3.79432e-05
3.7634e-05
3.73543e-05
3.71088e-05
3.69051e-05
3.67455e-05
3.6625e-05
3.6537e-05
3.64711e-05
3.64198e-05
3.63799e-05
3.63491e-05
3.63253e-05
3.63074e-05
3.62957e-05
3.6289e-05
3.62847e-05
3.62816e-05
3.62781e-05
3.6275e-05
3.62737e-05
3.62731e-05
3.62714e-05
)
;
    }
    front
    {
        type            wedge;
    }
    back
    {
        type            wedge;
    }
}


// ************************************************************************* //
