/*--------------------------------*- C++ -*----------------------------------*\
| =========                 |                                                 |
| \\      /  F ield         | OpenFOAM: The Open Source CFD Toolbox           |
|  \\    /   O peration     | Version:  2.4.x                                 |
|   \\  /    A nd           | Web:      www.OpenFOAM.org                      |
|    \\/     M anipulation  |                                                 |
\*---------------------------------------------------------------------------*/
FoamFile
{
    version     2.0;
    format      ascii;
    class       volScalarField;
    location    "0.05";
    object      chi;
}
// * * * * * * * * * * * * * * * * * * * * * * * * * * * * * * * * * * * * * //

dimensions      [0 0 -1 0 0 0 0];

internalField   nonuniform List<scalar> 
1250
(
0.0306965
0.210784
0.657872
1.50533
2.83056
4.54398
6.47427
8.44571
10.2234
11.7511
13.0088
13.8659
14.454
14.7273
14.8364
14.7206
14.3896
13.9238
13.3822
12.7764
12.1268
11.4718
10.8159
10.1746
9.5685
8.98034
8.45183
7.94731
7.38086
7.29663
7.90875
10.321
16.0806
16.6137
10.9722
3.20254
0.481539
0.0510302
0.00672364
0.0011774
0.000218383
3.95433e-05
6.90206e-06
1.16177e-06
1.88989e-07
2.97578e-08
4.53953e-09
6.7104e-10
9.60485e-11
1.29669e-11
0.0360067
0.254751
0.818681
1.88969
3.50645
5.49454
7.64611
9.69976
11.5031
12.9754
14.1299
14.9038
15.3544
15.5481
15.5582
15.3066
14.8943
14.3681
13.7598
13.0996
12.4133
11.719
11.036
10.3713
9.74672
9.14359
8.60019
8.08649
7.51475
7.41196
8.03366
10.4858
16.1182
16.5567
10.8916
3.1742
0.477085
0.0505814
0.00667469
0.00117012
0.000217178
3.93498e-05
6.87274e-06
1.15761e-06
1.88438e-07
2.96906e-08
4.53221e-09
6.7038e-10
9.60128e-11
1.29691e-11
0.0525541
0.407769
1.40009
3.21264
5.65517
8.30452
10.8205
12.9786
14.6767
15.9318
16.7939
17.2707
17.4526
17.4087
17.0946
16.6138
16.0145
15.3275
14.5829
13.8094
13.0284
12.2572
11.5133
10.7981
10.1324
9.49634
8.92043
8.3873
7.79827
7.65994
8.31266
10.8619
16.1916
16.426
10.6851
3.09586
0.464047
0.0493074
0.00654638
0.0011514
0.000214062
3.88412e-05
6.79383e-06
1.14602e-06
1.86827e-07
2.94795e-08
4.5064e-09
6.6748e-10
9.57236e-11
1.29452e-11
0.110109
1.00337
3.57817
7.42887
11.3715
14.7957
17.3881
19.2862
20.3813
21.0066
21.2373
21.1418
20.758
20.1799
19.4392
18.5963
17.6969
16.7598
15.807
14.8619
13.941
13.0567
12.2229
11.4338
10.7088
10.0222
9.39907
8.83727
8.2276
8.05739
8.73781
11.4207
16.3004
16.227
10.3484
2.96525
0.441988
0.0471706
0.00633489
0.0011207
0.000208941
3.79991e-05
6.66162e-06
1.12628e-06
1.84024e-07
2.91018e-08
4.4583e-09
6.61732e-10
9.50879e-11
1.28821e-11
0.555592
4.81216
12.8488
20.0899
24.8763
27.8529
29.002
29.4901
29.131
28.4347
27.4773
26.3683
25.1321
23.8279
22.4849
21.1531
19.8541
18.5878
17.3662
16.2027
15.1049
14.0791
13.1323
12.2516
11.4525
10.7022
10.0194
9.42183
8.78477
8.58601
9.30265
12.09
16.4168
15.9522
9.88057
2.78735
0.41189
0.0442774
0.00604951
0.00107931
0.000202034
3.68612e-05
6.4824e-06
1.0994e-06
1.80183e-07
2.85796e-08
4.39103e-09
6.53569e-10
9.41637e-11
1.27872e-11
12.1784
30.1584
43.0357
47.4392
48.4193
47.8417
45.5569
42.9371
40.1829
37.5298
34.9781
32.5427
30.2211
28.0352
25.9818
24.0831
22.3228
20.6792
19.1527
17.7435
16.4483
15.265
14.1918
13.2095
12.3283
11.5052
10.7578
10.1191
9.4462
9.2305
9.97898
12.7808
16.5186
15.5979
9.28389
2.57195
0.375533
0.0408074
0.00570445
0.00102901
0.000193637
3.54779e-05
6.26435e-06
1.06665e-06
1.75497e-07
2.79416e-08
4.30874e-09
6.43561e-10
9.3029e-11
1.26706e-11
23.7819
62.6043
75.9763
76.2587
72.7749
68.5513
62.4147
56.6676
51.4234
46.7592
42.5664
38.7792
35.3666
32.3011
29.5384
27.0762
24.8579
22.8386
21.01
19.3576
17.8672
16.5284
15.3294
14.2467
13.2825
12.3837
11.5749
10.8935
10.1752
9.96335
10.7329
13.4495
16.5364
15.1129
8.59563
2.33204
0.335106
0.0369752
0.00531694
0.000971996
0.000184108
3.39085e-05
6.01706e-06
1.02954e-06
1.70193e-07
2.72213e-08
4.21618e-09
6.32374e-10
9.17738e-11
1.25443e-11
9.66968
55.4321
84.3699
89.5173
86.6058
81.164
73.8475
66.6654
60.0474
54.1057
48.7657
43.9954
39.7596
36.0043
32.6792
29.7548
27.1578
24.8266
22.7446
20.8867
19.2316
17.7606
16.4529
15.283
14.2433
13.2732
12.4132
11.6887
10.9209
10.7446
11.531
14.0276
16.3857
14.4605
7.86512
2.07459
0.293005
0.033007
0.00490591
0.000910716
0.000173845
3.22192e-05
5.75125e-06
9.89738e-07
1.64526e-07
2.64559e-08
4.11873e-09
6.20758e-10
9.05011e-11
1.24217e-11
3.85564
32.1299
65.715
81.8077
84.5753
82.2697
76.8337
70.3062
63.9064
57.7839
52.1985
47.1429
42.6042
38.5395
34.9333
31.7486
28.9209
26.3957
24.1514
22.1606
20.3987
18.8384
17.4545
16.2206
15.1207
14.0931
13.1966
12.4283
11.6219
11.5137
12.3204
14.4368
16.034
13.6642
7.10545
1.81063
0.251527
0.0291137
0.00449046
0.000847768
0.000163276
3.04811e-05
5.47841e-06
9.49046e-07
1.58769e-07
2.56863e-08
4.02227e-09
6.09544e-10
8.93253e-11
1.23177e-11
1.79349
12.531
34.9306
55.9371
67.4451
71.1022
70.4457
66.8396
62.5708
57.4714
52.5854
47.8329
43.4603
39.489
35.9253
32.7313
29.8598
27.2983
25.0259
23.0125
21.2235
19.6317
18.2153
16.9488
15.8104
14.7495
13.8337
13.0206
12.2196
12.1851
12.9797
14.641
15.4805
12.7504
6.33072
1.55279
0.212662
0.0254687
0.00408795
0.000785718
0.000152832
2.8767e-05
5.21044e-06
9.09341e-07
1.53209e-07
2.49555e-08
3.93311e-09
5.99632e-10
8.83714e-11
1.2249e-11
0.170239
2.58704
11.4356
26.6723
41.4818
51.109
55.6955
56.3681
55.2438
52.2304
49.223
45.5424
42.0191
38.6385
35.47
32.5459
29.8612
27.4394
25.2617
23.3183
21.5781
20.0222
18.6238
17.3649
16.2188
15.1536
14.2375
13.3889
12.678
12.666
13.3816
14.5788
14.7709
11.7064
5.5451
1.30385
0.17679
0.0220872
0.00369961
0.000724762
0.000142544
2.70821e-05
4.94832e-06
8.70821e-07
1.47888e-07
2.42719e-08
3.85293e-09
5.91335e-10
8.76932e-11
1.22243e-11
0.0455263
0.5144
2.55867
7.97817
17.0503
27.2759
35.2802
40.0271
42.259
42.3412
41.5718
39.6534
37.6524
35.3431
32.9234
30.6366
28.4491
26.4116
24.5373
22.8175
21.2439
19.8143
18.5095
17.3173
16.2108
15.1897
14.3029
13.465
12.9106
12.9362
13.3909
14.2252
13.8537
10.4742
4.6991
1.05551
0.142584
0.0188017
0.00330205
0.000660708
0.000131619
2.52807e-05
4.66651e-06
8.2921e-07
1.42118e-07
2.35296e-08
3.76584e-09
5.82395e-10
8.69886e-11
1.22046e-11
0.020308
0.151333
0.586034
1.75791
4.43965
9.13532
15.3351
21.26
25.7735
28.5888
30.0871
30.3703
30.042
29.1705
27.9094
26.636
25.2095
23.7759
22.4169
21.1003
19.844
18.6566
17.5424
16.4958
15.5088
14.5994
13.7828
13.0961
12.7301
12.6897
12.9704
13.5398
12.6517
9.04168
3.78021
0.808368
0.109818
0.015528
0.00287611
0.000589256
0.000119135
2.31766e-05
4.32932e-06
7.78004e-07
1.34768e-07
2.2539e-08
3.64152e-09
5.68161e-10
8.55665e-11
1.20938e-11
0.0112459
0.0621767
0.185043
0.450473
1.00776
2.13336
4.16187
7.15216
10.7602
14.197
16.9867
18.9385
20.1395
20.7022
20.7391
20.4873
19.9936
19.333
18.6438
17.8538
17.0441
16.2249
15.4223
14.6312
13.8763
13.1857
12.5872
12.1169
11.9162
11.9154
12.1865
12.4198
11.0803
7.43139
2.84676
0.57545
0.0798417
0.0123376
0.00242202
0.000509157
0.00010468
2.06644e-05
3.91313e-06
7.12346e-07
1.24907e-07
2.11317e-08
3.45103e-09
5.43863e-10
8.26768e-11
1.17823e-11
0.00688144
0.0314155
0.0774169
0.158846
0.30013
0.546568
0.982348
1.73338
2.91778
4.55918
6.4932
8.44899
10.1593
11.5001
12.4344
13.0218
13.3321
13.4215
13.358
13.16
12.8644
12.502
12.1134
11.6927
11.2884
10.9274
10.6266
10.4456
10.4394
10.6217
10.9417
10.7862
9.16431
5.6712
1.96621
0.374237
0.0544293
0.00935545
0.0019505
0.000421448
8.82905e-05
1.77206e-05
3.40817e-06
6.29584e-07
1.11933e-07
1.9185e-08
3.17133e-09
5.05447e-10
7.76458e-11
1.11673e-11
0.00442155
0.0178104
0.0389218
0.0712038
0.1198
0.19316
0.305747
0.480651
0.754125
1.17328
1.78524
2.59837
3.54213
4.52955
5.44379
6.22051
6.85241
7.34471
7.70833
7.95657
8.1078
8.18309
8.20633
8.19644
8.1835
8.19158
8.24811
8.38256
8.62314
8.94412
9.16826
8.74901
6.99904
3.9046
1.19817
0.217626
0.0346501
0.00670991
0.00148403
0.000329874
7.05657e-05
1.44309e-05
2.82456e-06
5.30476e-07
9.57937e-08
1.66611e-08
2.79186e-09
4.50601e-10
7.00309e-11
1.01745e-11
0.00287821
0.010731
0.0217805
0.0370813
0.0580439
0.0867468
0.126464
0.18222
0.261597
0.374864
0.53618
0.759619
1.06103
1.43777
1.86116
2.29581
2.73459
3.16114
3.56231
3.93048
4.26355
4.56465
4.84107
5.10349
5.36725
5.64733
5.95841
6.30592
6.68757
7.02561
7.09399
6.46505
4.77299
2.30062
0.619881
0.112444
0.0205959
0.00450085
0.00105169
0.000240647
5.26623e-05
1.09981e-05
2.19546e-06
4.2004e-07
7.71937e-08
1.36472e-08
2.32153e-09
3.79954e-10
5.98146e-11
8.78689e-12
0.00185851
0.00662099
0.0128668
0.0209862
0.0314832
0.0450557
0.0627315
0.086056
0.117296
0.159599
0.216816
0.293075
0.394987
0.52651
0.688327
0.870418
1.0783
1.30875
1.5582
1.8231
2.10062
2.38929
2.68968
3.00443
3.3381
3.69432
4.07188
4.45652
4.81148
5.0212
4.90705
4.19219
2.73147
1.1
0.267992
0.0527653
0.0114768
0.00278837
0.000683387
0.000160977
3.61003e-05
7.7137e-06
1.57383e-06
3.07348e-07
5.7597e-08
1.03682e-08
1.79314e-09
2.97998e-10
4.75746e-11
7.07256e-12
0.00117094
0.00406997
0.00772581
0.012309
0.018039
0.0252146
0.0342621
0.0458125
0.0607887
0.0805287
0.106756
0.141446
0.187271
0.24684
0.319809
0.407051
0.510185
0.63044
0.769109
0.927329
1.10593
1.30594
1.52846
1.77455
2.04435
2.3344
2.63318
2.91353
3.11853
3.15495
2.91089
2.23149
1.206
0.409058
0.0990187
0.023174
0.00593599
0.00156492
0.000399463
9.68837e-05
2.23028e-05
4.88486e-06
1.02034e-06
2.03757e-07
3.89973e-08
7.15916e-09
1.26075e-09
2.12986e-10
3.45138e-11
5.1956e-12
0.00070868
0.00243925
0.00458672
0.00723521
0.0104892
0.0144875
0.0194271
0.0255985
0.0334357
0.0435836
0.0569489
0.0747084
0.0983522
0.129895
0.169587
0.217789
0.275762
0.344502
0.425215
0.519133
0.627558
0.751643
0.892089
1.04859
1.21862
1.39478
1.5618
1.69029
1.73362
1.65429
1.37337
0.879172
0.391875
0.12347
0.0341159
0.00967329
0.00278836
0.000777988
0.000205619
5.13369e-05
1.21436e-05
2.72982e-06
5.84549e-07
1.19513e-07
2.33861e-08
4.3826e-09
7.86401e-10
1.35123e-10
2.22384e-11
3.39068e-12
0.000405068
0.00140028
0.0026432
0.00417748
0.00605037
0.00831989
0.0110682
0.0144218
0.0185808
0.0238588
0.03074
0.0399155
0.052279
0.0692034
0.09159
0.119332
0.153107
0.19334
0.240471
0.29494
0.35707
0.426871
0.50366
0.585511
0.668125
0.743592
0.798734
0.814336
0.780659
0.663711
0.46224
0.247957
0.100743
0.0347584
0.0115073
0.00372447
0.00114924
0.000333359
9.08203e-05
2.33216e-05
5.66817e-06
1.30787e-06
2.87177e-07
6.01488e-08
1.20338e-08
2.30089e-09
4.20465e-10
7.34784e-11
1.2281e-11
1.89476e-12
0.000213195
0.0007605
0.00147181
0.0023684
0.00346403
0.00477138
0.00631129
0.00812615
0.0102956
0.0129571
0.0163562
0.0208622
0.026987
0.035371
0.0469064
0.0617805
0.0799829
0.101662
0.12672
0.154944
0.185903
0.218809
0.252245
0.283929
0.310105
0.325777
0.326104
0.306787
0.25801
0.187455
0.113409
0.0567501
0.0245858
0.00975243
0.00361278
0.00124489
0.000398337
0.000118817
3.32258e-05
8.75328e-06
2.18153e-06
5.15738e-07
1.15945e-07
2.48272e-08
5.06812e-09
9.87018e-10
1.83401e-10
3.25452e-11
5.51576e-12
8.57949e-13
9.81234e-05
0.000391544
0.000814179
0.00137098
0.0020488
0.00283284
0.00371194
0.00468768
0.00578788
0.00705134
0.00860422
0.0106173
0.0133103
0.0169659
0.0218837
0.0284427
0.0365359
0.0460109
0.0567368
0.0683219
0.0801912
0.0915719
0.101436
0.108575
0.111645
0.109126
0.100436
0.0840025
0.0630395
0.0417702
0.0244048
0.0126692
0.00590794
0.00249163
0.000956569
0.000336916
0.000109808
3.33695e-05
9.51396e-06
2.55639e-06
6.49707e-07
1.56559e-07
3.58353e-08
7.80313e-09
1.61795e-09
3.19629e-10
6.01477e-11
1.07868e-11
1.84481e-12
2.87018e-13
3.50939e-05
0.000211519
0.000520824
0.000925814
0.00138162
0.00187499
0.00237638
0.00286809
0.00337321
0.0039066
0.00451779
0.00529838
0.0062929
0.00759797
0.00930534
0.0114634
0.0141076
0.0171351
0.0204655
0.0239125
0.0270408
0.0295179
0.0310651
0.0312904
0.0304399
0.0279827
0.0237766
0.0186731
0.0134089
0.00857665
0.00491708
0.00254668
0.00118312
0.000496845
0.00018998
6.6838e-05
2.18437e-05
6.67362e-06
1.91577e-06
5.18931e-07
1.33058e-07
3.23429e-08
7.46023e-09
1.63562e-09
3.41161e-10
6.77344e-11
1.27926e-11
2.29839e-12
3.93327e-13
6.0261e-14
1.27864e-05
0.000217052
0.000465022
0.000715684
0.000973578
0.00122868
0.0014605
0.00167693
0.00189381
0.00209375
0.00228508
0.00249018
0.00274584
0.00309091
0.00355899
0.00416561
0.00489517
0.00571799
0.00657538
0.00739599
0.00809567
0.00857271
0.00872713
0.00847896
0.0078001
0.00671631
0.00536685
0.00395883
0.00268354
0.00166609
0.000938168
0.000478293
0.000221965
9.45057e-05
3.72867e-05
1.38863e-05
4.83899e-06
1.38935e-06
3.23848e-07
8.06406e-08
2.35592e-08
6.35948e-09
1.21406e-09
2.27655e-10
4.62179e-11
1.05408e-11
1.99776e-12
3.15522e-13
4.98744e-14
7.06132e-15
)
;

boundaryField
{
    AXIS
    {
        type            empty;
    }
    OUTLET
    {
        type            zeroGradient;
    }
    COFLOW
    {
        type            calculated;
        value           uniform 0;
    }
    PILOT
    {
        type            calculated;
        value           uniform 0;
    }
    FUEL
    {
        type            calculated;
        value           uniform 0;
    }
    WALL
    {
        type            zeroGradient;
    }
    front
    {
        type            wedge;
    }
    back
    {
        type            wedge;
    }
}


// ************************************************************************* //
