/*--------------------------------*- C++ -*----------------------------------*\
| =========                 |                                                 |
| \\      /  F ield         | OpenFOAM: The Open Source CFD Toolbox           |
|  \\    /   O peration     | Version:  2.4.x                                 |
|   \\  /    A nd           | Web:      www.OpenFOAM.org                      |
|    \\/     M anipulation  |                                                 |
\*---------------------------------------------------------------------------*/
FoamFile
{
    version     2.0;
    format      ascii;
    class       volScalarField;
    location    "0.05";
    object      epsilon;
}
// * * * * * * * * * * * * * * * * * * * * * * * * * * * * * * * * * * * * * //

dimensions      [0 2 -3 0 0 0 0];

internalField   nonuniform List<scalar> 
1250
(
76.2113
136.024
196.227
280.308
388.667
512.199
636.712
757.036
850.311
925.883
985.578
1021.82
1047.5
1050.79
1047.1
1031.5
1008.92
978.62
945.587
907.884
866.591
825.204
783.179
743.338
703.408
663.409
627.573
592.346
554.185
547.423
577.825
708.38
1179.7
1511.91
1245.86
434.832
93.6092
25.4681
13.3923
11.2184
10.814
10.7352
10.7179
10.7123
10.7075
10.7016
10.6973
10.6958
10.6933
10.6899
80.2057
146.339
221.047
325.748
455.41
596.092
735.213
854.433
946.883
1015.17
1066.69
1098.2
1112.62
1110.41
1099.14
1075.29
1046.15
1012.21
973.583
931.547
887.981
843.098
798.979
757.307
715.858
674.35
637.13
600.919
561.706
553.119
583.285
713.832
1185.78
1507.82
1240.79
432.27
93.1486
25.3864
13.374
11.2129
10.8109
10.7325
10.7154
10.7097
10.705
10.6991
10.6948
10.6934
10.6909
10.6875
88.0593
177.018
300.799
469.004
657.563
837.735
990.25
1104.2
1181.92
1230.24
1260.88
1269.37
1262.76
1243.27
1210.36
1170.52
1128.38
1082.83
1034.04
983.503
932.654
881.715
832.74
786.87
742.013
697.366
657.087
618.758
576.734
565.483
595.572
726.649
1199.57
1498.46
1226.09
423.771
91.5124
25.1096
13.3224
11.1997
10.8045
10.7273
10.7104
10.7049
10.7002
10.6943
10.6901
10.6888
10.6864
10.6828
104.864
271.702
545.44
872.785
1156.17
1368.07
1502.98
1579.41
1604.39
1599.54
1582.72
1547.36
1498.86
1442.66
1379.23
1314.02
1251
1187.4
1123.17
1059.71
998.151
938.329
882.158
829.839
780.015
730.924
686.257
644.794
599.124
584.476
614.928
747.87
1223.37
1484.73
1201.2
408.64
88.5476
24.6145
13.2344
11.179
10.7952
10.7201
10.7036
10.6982
10.6934
10.6876
10.6836
10.6826
10.6802
10.6764
200.258
696.672
1384.84
1972.57
2267.19
2390.76
2383.77
2335.65
2234.74
2127.78
2024.62
1918.07
1809.1
1701.1
1594.82
1495.87
1405.31
1318.1
1234.22
1154.53
1079.54
1008.7
943.446
883.167
826.762
772.307
722.699
677.159
627.088
609.061
640.672
776.615
1254.55
1465.19
1165.53
387.192
84.309
23.9097
13.1112
11.1507
10.7829
10.7105
10.6946
10.6894
10.6847
10.679
10.6753
10.6744
10.6722
10.668
1115.9
2830.91
3974.8
4107.73
4031.06
3834.19
3540.04
3256.26
2985.72
2747.2
2535.65
2338.82
2155.29
1986.82
1833.1
1696.98
1575.47
1462.02
1356.47
1259.04
1169.38
1086.53
1011.25
942.293
878.79
818.095
763.474
713.693
658.796
638.284
672.11
812.355
1287.72
1438.98
1118.29
360.563
78.9972
23.0265
12.9571
11.1155
10.7675
10.6986
10.6833
10.6784
10.6738
10.6681
10.6648
10.6642
10.6619
10.6574
1208.98
4163.54
5453.95
5514.36
5304.76
4974.16
4495.5
4048.47
3647.48
3301.91
2997.43
2721.49
2474.3
2254.38
2058.18
1888.25
1738.25
1600.51
1474.84
1360.9
1257.44
1163.29
1078.46
1001.37
931.216
864.482
805.07
751.081
691.989
670.669
707.874
855.043
1317.85
1405.04
1058.74
330.324
72.8876
22.0082
12.7783
11.074
10.749
10.684
10.6695
10.6649
10.6604
10.6549
10.652
10.6516
10.6493
10.6443
497.382
2393.8
4473.57
5235.52
5311.96
5156.17
4799.18
4385.88
3987
3622.16
3283.87
2973.63
2695.01
2446.21
2226.45
2036.02
1866.61
1711.95
1571.74
1445.61
1331.87
1229.27
1137.12
1053.79
978.389
906.748
843.692
785.671
723.788
704.657
746.613
906.348
1334.55
1362.28
987.146
297.99
66.328
20.9077
12.5824
11.0272
10.7272
10.6665
10.6528
10.6486
10.6443
10.639
10.6366
10.6364
10.6338
10.6285
249.556
1017.92
2489.74
3700.54
4304.7
4488.64
4415.58
4195.54
3909.86
3609.94
3310.3
3024.35
2759.25
2516.7
2300.36
2110.34
1936.97
1776.35
1630.71
1499.75
1381.67
1275.24
1179.51
1092.82
1014.28
939.791
874.865
813.791
752.069
738.016
785.517
960.157
1335.11
1311.25
906.433
264.208
59.669
19.779
12.378
10.9763
10.7022
10.6459
10.6331
10.6292
10.6251
10.6202
10.6184
10.6182
10.6151
10.6096
148.911
364.623
963.079
1895.31
2710.99
3220.96
3469.65
3514.21
3451.53
3297.08
3097.97
2880.37
2664.41
2458.29
2269.95
2098.13
1933.89
1779.72
1639.99
1513.21
1397.99
1293.33
1198.51
1112.12
1033.07
958.67
894.116
831.979
774.596
767.768
820.992
1011.56
1316.72
1252.13
818.631
230.434
53.1882
18.673
12.1731
10.9223
10.6739
10.622
10.61
10.6064
10.6025
10.5981
10.597
10.5966
10.593
10.5873
32.0337
110.164
305.454
710.458
1304.12
1875.68
2297.62
2553.09
2677.44
2677.91
2630.52
2524.49
2396.75
2260.72
2125.34
1989.43
1851.25
1718.89
1595.83
1481.38
1375.48
1277.81
1188.31
1106.19
1029.9
958.93
897.63
837.689
789.816
791.07
849.612
1051.13
1282.45
1183.51
723.186
197.133
46.961
17.5997
11.9684
10.8645
10.6413
10.5939
10.5827
10.5793
10.5755
10.5718
10.5717
10.5711
10.5666
10.5607
17.1614
42.8551
101.73
221.68
452.87
808.012
1193.58
1520.99
1759.93
1902.8
1976.06
1982.75
1960.5
1907.82
1834.51
1749.79
1658.05
1565.33
1473.71
1383.89
1297.42
1215.19
1138.16
1066.28
998.268
935.43
881.025
828.07
794.424
805.634
868.439
1072.79
1226.1
1100.35
614.352
163.512
40.7783
16.5161
11.7548
10.8004
10.6032
10.5605
10.5501
10.5469
10.5431
10.5402
10.5406
10.5397
10.5348
10.5289
13.1973
23.5397
42.3636
76.5442
140.362
254.12
442.516
674.232
902.966
1096.29
1242.05
1338.54
1397.05
1421.58
1417.38
1398.16
1359.72
1312.9
1260.81
1204.25
1145.88
1087.4
1030.61
975.94
923.517
875.299
833.63
796.007
781.406
799.91
875.755
1068.01
1145.59
995.151
493.288
129.82
34.6051
15.4066
11.5286
10.7297
10.56
10.5224
10.513
10.5099
10.5058
10.5035
10.5042
10.5034
10.4984
10.4924
11.6124
16.4341
23.8792
35.0418
52.9311
83.2584
134.644
215.948
333.611
468.261
602.148
721.637
819.482
892.817
941.825
971.243
981.982
979.664
969.825
949.471
923.814
894.553
863.988
832.72
802.197
774.662
751.487
736.501
740.833
773.728
867.805
1025.39
1036.82
854.259
371.674
97.9294
28.6734
14.3065
11.2963
10.6543
10.5136
10.4814
10.4729
10.4697
10.4655
10.4636
10.4646
10.4639
10.4592
10.453
10.8518
13.3007
16.7427
21.3448
27.6385
36.695
50.5367
72.1242
104.897
152.387
216.014
289.895
366.454
438.604
501.515
552.821
592.025
620.462
640.025
651.291
656.194
655.776
653.327
648.169
642.919
640.087
641.029
648.562
671.912
725.593
831.921
928.607
898.821
674.327
260.19
70.0798
23.3393
13.2711
11.0674
10.5774
10.4657
10.4391
10.4316
10.4282
10.4238
10.4225
10.4237
10.4232
10.4187
10.4123
10.4525
11.7408
13.4913
15.7132
18.5114
22.1155
26.9313
33.5695
42.89
56.1247
74.7734
99.7001
131.493
168.721
208.838
248.825
286.563
321.113
351.98
378.942
402.292
422.538
440.773
457.629
474.719
493.594
516.314
545.586
588.814
656.54
747.33
788.282
727.288
474.778
165.953
47.5745
18.8983
12.3622
10.8552
10.5027
10.4183
10.3972
10.3905
10.3869
10.3825
10.3817
10.3831
10.3828
10.3786
10.3719
10.2334
10.9148
11.8575
13.0495
14.5146
16.3115
18.5499
21.3878
25.0338
29.7981
36.0543
44.1432
54.7971
68.3955
85.2156
104.894
126.735
150.228
174.83
200.083
225.707
251.623
278.003
305.203
334.074
365.652
401.498
443.396
496.004
561.255
618.76
617.833
529.333
286.322
95.0322
31.3737
15.4995
11.6209
10.6701
10.4332
10.3729
10.3568
10.351
10.3469
10.3427
10.3425
10.3439
10.3436
10.3396
10.3327
10.1132
10.4721
11.0076
11.7084
12.5863
13.6661
14.9923
16.6302
18.6756
21.2469
24.4679
28.4923
33.5531
39.8827
47.8324
57.567
69.1262
82.6334
98.1628
115.748
135.401
157.152
181.119
207.574
237
269.983
307.166
349.07
396.276
441.725
460.565
434.117
322.012
146.274
50.7456
21.0957
13.1668
11.0715
10.5193
10.3707
10.3298
10.3179
10.313
10.3081
10.3056
10.3056
10.3058
10.3055
10.3016
10.2946
10.0515
10.2472
10.581
11.0437
11.647
12.4109
13.3667
14.5614
16.0605
17.9505
20.3354
23.3181
26.9734
31.4045
36.7392
43.0589
50.5176
59.2981
69.6042
81.6508
95.5833
111.6
129.925
150.826
174.545
201.234
230.66
261.831
291.393
308.239
301.565
256.124
154.106
65.7491
27.387
15.2936
11.7233
10.6963
10.4014
10.3138
10.2871
10.2783
10.274
10.2684
10.2662
10.2662
10.2662
10.266
10.2622
10.2553
10.0273
10.1617
10.4125
10.7723
11.2512
11.8673
12.6491
13.639
14.8958
16.4957
18.5268
21.071
24.1807
27.9007
32.2441
37.2387
42.9674
49.5424
57.1015
65.7627
75.6636
86.9478
99.7454
114.124
130.042
147.102
164.364
179.731
188.141
185.287
164.48
116.022
62.3582
29.8545
16.8494
12.3678
10.9116
10.453
10.3065
10.2567
10.239
10.2318
10.2274
10.2222
10.2213
10.222
10.2206
10.2181
10.2138
10.2093
10.0397
10.1973
10.4597
10.8087
11.2477
11.7896
12.4587
13.2926
14.3425
15.6718
17.3519
19.4488
22.0073
25.0686
28.6513
32.734
37.306
42.392
48.0117
54.1818
60.9147
68.2077
76.0071
84.163
92.3176
99.8013
105.426
107.153
104.035
92.1045
70.126
45.0819
26.2772
16.5899
12.5439
11.0191
10.4761
10.2859
10.2154
10.1864
10.1734
10.1663
10.1613
10.1599
10.1604
10.1589
10.1546
10.1517
10.1479
10.1459
10.1211
10.4645
10.8749
11.3187
11.7832
12.2755
12.8181
13.4466
14.2038
15.1374
16.3128
17.7837
19.5916
21.7686
24.3426
27.3288
30.6655
34.2751
38.0733
41.9832
45.9162
49.7736
53.3782
56.4934
58.7181
59.5341
58.7175
55.085
47.9886
38.4156
28.1579
19.8568
14.6765
12.0452
10.8774
10.3994
10.2103
10.1331
10.0979
10.0794
10.0692
10.062
10.0594
10.0596
10.0582
10.0541
10.0479
10.0468
10.0476
10.0468
10.5272
11.5711
12.4717
13.2082
13.7368
14.105
14.3704
14.5949
14.8477
15.1454
15.595
16.243
17.0998
18.1976
19.561
21.1928
23.0493
25.0316
27.0351
28.9419
30.6338
31.9794
32.8382
33.1008
32.764
31.3782
28.8703
25.5203
21.6175
17.7639
14.6017
12.4277
11.1551
10.4981
10.1852
10.0408
9.97289
9.93831
9.918
9.90465
9.89574
9.88957
9.88511
9.88196
9.8798
9.87738
9.87397
9.87228
9.87255
9.87234
13.9988
18.5962
20.6689
21.3529
21.0867
20.4476
19.5217
18.4506
17.4921
16.648
15.9995
15.6403
15.4328
15.4044
15.5711
15.9137
16.365
16.917
17.5666
18.1808
18.5583
18.6607
18.5241
18.1108
17.4017
16.4245
15.2681
14.0561
12.9278
11.7842
10.8899
10.3848
10.099
9.96243
9.88231
9.82534
9.7879
9.76297
9.74578
9.73332
9.72403
9.71741
9.71284
9.70942
9.70672
9.70397
9.70127
9.69915
9.69756
9.69568
148.916
119.689
90.4096
70.7449
56.9668
47.2593
38.6882
32.2016
28.1754
24.8159
22.0182
19.7376
17.9645
16.6823
15.8518
15.3969
15.2144
15.225
15.3422
15.4917
15.6146
15.6614
15.5954
15.3876
15.0395
14.5947
14.1017
13.6129
13.1749
12.8133
12.5268
12.3119
12.1584
12.0515
11.9774
11.9245
11.8853
11.8555
11.8326
11.8149
11.8016
11.7929
11.7879
11.7847
11.7823
11.7795
11.7771
11.776
11.7754
11.774
)
;

boundaryField
{
    AXIS
    {
        type            empty;
    }
    OUTLET
    {
        type            zeroGradient;
    }
    COFLOW
    {
        type            fixedValue;
        value           uniform 10;
    }
    PILOT
    {
        type            fixedValue;
        value           uniform 10;
    }
    FUEL
    {
        type            fixedValue;
        value           uniform 50;
    }
    WALL
    {
        type            compressible::epsilonWallFunction;
        Cmu             0.09;
        kappa           0.41;
        E               9.8;
        value           nonuniform List<scalar> 
50
(
148.916
119.689
90.4096
70.7449
56.9668
47.2593
38.6882
32.2016
28.1754
24.8159
22.0182
19.7376
17.9645
16.6823
15.8518
15.3969
15.2144
15.225
15.3422
15.4917
15.6146
15.6614
15.5954
15.3876
15.0395
14.5947
14.1017
13.6129
13.1749
12.8133
12.5268
12.3119
12.1584
12.0515
11.9774
11.9245
11.8853
11.8555
11.8326
11.8149
11.8016
11.7929
11.7879
11.7847
11.7823
11.7795
11.7771
11.776
11.7754
11.774
)
;
    }
    front
    {
        type            wedge;
    }
    back
    {
        type            wedge;
    }
}


// ************************************************************************* //
