/*--------------------------------*- C++ -*----------------------------------*\
| =========                 |                                                 |
| \\      /  F ield         | OpenFOAM: The Open Source CFD Toolbox           |
|  \\    /   O peration     | Version:  2.4.x                                 |
|   \\  /    A nd           | Web:      www.OpenFOAM.org                      |
|    \\/     M anipulation  |                                                 |
\*---------------------------------------------------------------------------*/
FoamFile
{
    version     2.0;
    format      ascii;
    class       volScalarField;
    location    "0.05";
    object      k;
}
// * * * * * * * * * * * * * * * * * * * * * * * * * * * * * * * * * * * * * //

dimensions      [0 2 -2 0 0 0 0];

internalField   nonuniform List<scalar> 
1250
(
5.55695
5.94448
5.90609
5.98187
6.20606
6.52926
6.83252
7.09536
7.21623
7.28272
7.2933
7.26563
7.20577
7.08218
6.94478
6.76429
6.59759
6.41589
6.23278
6.03754
5.83579
5.63604
5.43906
5.26397
5.07291
4.89788
4.74867
4.54389
4.43988
4.49725
4.76039
5.76624
9.21417
11.0096
9.31498
3.95187
1.24098
0.617955
0.488848
0.460665
0.454093
0.452375
0.45183
0.451708
0.451706
0.45171
0.451727
0.451698
0.451527
0.451248
5.60984
5.94108
5.95914
6.11297
6.41201
6.77891
7.121
7.3512
7.46196
7.50206
7.49456
7.45547
7.36554
7.23056
7.06638
6.87874
6.69488
6.50681
6.30933
6.1042
5.89928
5.691
5.49021
5.31197
5.11852
4.94021
4.78761
4.58016
4.47361
4.52815
4.79288
5.80389
9.26115
10.9929
9.28738
3.93204
1.23704
0.617213
0.488627
0.46056
0.454014
0.452302
0.451759
0.451636
0.451633
0.451638
0.451657
0.451628
0.451454
0.451179
5.61204
5.9217
6.1434
6.53811
7.03675
7.47717
7.80727
7.97472
8.03667
8.02106
7.96705
7.86407
7.71933
7.54016
7.33413
7.11568
6.90536
6.69245
6.47282
6.24977
6.02966
5.80906
5.59894
5.41232
5.21334
5.02902
4.86855
4.65552
4.54357
4.59305
4.86555
5.89521
9.36956
10.9527
9.20774
3.87094
1.22372
0.614695
0.488024
0.460321
0.453851
0.452156
0.451618
0.451497
0.451494
0.451499
0.451518
0.451492
0.451318
0.451046
5.42621
6.03745
6.80567
7.7052
8.43109
8.85098
9.07821
9.09261
9.02564
8.87377
8.69829
8.49408
8.25916
8.00439
7.73332
7.46452
7.21306
6.96288
6.71104
6.46145
6.21967
5.98143
5.75757
5.55673
5.34961
5.15831
4.98643
4.76627
4.6483
4.68454
4.98063
6.05219
9.54482
10.8905
9.06966
3.76423
1.19968
0.61018
0.487003
0.459952
0.453614
0.451948
0.451418
0.451301
0.451299
0.451303
0.451324
0.451298
0.451126
0.450856
5.5851
7.05795
9.10099
10.5541
11.1111
11.1563
11.0327
10.7302
10.3575
9.99346
9.64847
9.29824
8.94135
8.58348
8.22725
7.89465
7.59107
7.29399
7.00315
6.72162
6.45349
6.19402
5.95293
5.73481
5.51509
5.31643
5.13343
4.90532
4.78387
4.81536
5.13583
6.27581
9.76255
10.7972
8.86926
3.61268
1.16526
0.603704
0.485565
0.459449
0.453299
0.451675
0.451157
0.451045
0.451043
0.451048
0.451069
0.451045
0.450877
0.450609
9.01697
12.9081
14.9882
14.9187
14.6048
13.9381
13.212
12.4948
11.8136
11.2146
10.6758
10.16
9.66451
9.19459
8.7534
8.35599
7.99624
7.64986
7.31817
7.00364
6.70808
6.42658
6.16707
5.93088
5.69852
5.49001
5.29652
5.06537
4.94504
4.97758
5.3339
6.58717
9.96606
10.6665
8.60029
3.42247
1.12189
0.595516
0.483746
0.458818
0.452906
0.451334
0.450832
0.450726
0.450725
0.450729
0.450751
0.450728
0.450565
0.450298
7.14394
14.7143
17.1214
17.0769
16.6571
15.7389
14.768
13.8268
12.9608
12.2054
11.5228
10.8819
10.2869
9.73693
9.22812
8.77696
8.36927
7.98089
7.6144
7.27178
6.95249
6.65224
6.37681
6.12535
5.88337
5.66644
5.46227
5.2341
5.12467
5.16382
5.56926
6.96831
10.1368
10.4924
8.25809
3.2024
1.0716
0.585952
0.481596
0.458062
0.452431
0.45092
0.450437
0.450338
0.450337
0.450341
0.450365
0.450343
0.450185
0.44992
3.15227
9.91568
14.3746
15.8895
16.0893
15.684
15.0035
14.191
13.3913
12.6549
11.9509
11.2815
10.6574
10.0772
9.54783
9.0766
8.64226
8.23012
7.84339
7.48441
7.15128
6.84089
6.55667
6.29635
6.05031
5.8291
5.6185
5.4003
5.3109
5.36735
5.83558
7.41587
10.2285
10.2699
7.83816
2.96549
1.0172
0.575446
0.479185
0.457193
0.451872
0.45043
0.449968
0.449877
0.449876
0.44988
0.449904
0.449884
0.449731
0.449468
2.21471
5.4452
9.277
12.009
13.4493
13.9164
13.8401
13.4993
12.9692
12.4116
11.8152
11.2231
10.6527
10.1132
9.62115
9.17814
8.7544
8.34388
7.95944
7.60289
7.27167
6.96384
6.68188
6.42169
6.17853
5.95962
5.75063
5.55391
5.49439
5.57974
6.11877
7.87266
10.2412
10.0001
7.35096
2.71815
0.96152
0.564453
0.476596
0.45622
0.451228
0.449859
0.449419
0.449336
0.449335
0.449338
0.449363
0.449344
0.449197
0.448936
2.01109
2.73848
4.67671
7.30037
9.43116
10.7531
11.4277
11.6864
11.6362
11.4376
11.0843
10.687
10.2622
9.83361
9.43284
9.05456
8.66884
8.28796
7.93103
7.59707
7.28557
6.99542
6.72831
6.47965
6.24768
6.04023
5.84464
5.68423
5.6612
5.7912
6.4091
8.28436
10.1714
9.68152
6.81008
2.46681
0.906424
0.553423
0.473911
0.455157
0.450496
0.4492
0.448782
0.448707
0.448707
0.44871
0.448735
0.448718
0.448577
0.448317
1.15402
1.52343
2.23371
3.64237
5.50086
7.16069
8.36282
9.15245
9.58207
9.75852
9.7307
9.61634
9.4048
9.15942
8.90842
8.63448
8.33094
8.02467
7.72979
7.44497
7.17264
6.91422
6.67406
6.44941
6.23916
6.0551
5.88972
5.78351
5.79764
6.00106
6.70958
8.60321
10.0134
9.30253
6.20893
2.2139
0.852402
0.542429
0.471125
0.453983
0.449652
0.448429
0.448035
0.447969
0.447969
0.44797
0.447995
0.447979
0.447844
0.447586
1.03997
1.16356
1.36265
1.78719
2.66693
3.90171
5.15603
6.21532
6.99748
7.53835
7.85261
8.02612
8.06808
8.04221
7.96493
7.82447
7.65332
7.46765
7.26971
7.06585
6.86159
6.66168
6.47249
6.29401
6.12727
5.98396
5.87023
5.83344
5.89404
6.17977
7.02219
8.80982
9.72721
8.83392
5.50527
1.95173
0.797237
0.530938
0.468086
0.452638
0.448657
0.447511
0.447141
0.447083
0.447083
0.447084
0.447109
0.447095
0.446966
0.44671
1.01176
1.04967
1.09486
1.19031
1.41544
1.86048
2.59207
3.4577
4.29119
5.01157
5.56739
5.98885
6.27927
6.47094
6.58476
6.62053
6.60882
6.56862
6.49177
6.39489
6.28566
6.17116
6.05922
5.95283
5.85718
5.78327
5.7592
5.79399
5.93583
6.33867
7.30607
8.82096
9.28572
8.21092
4.69456
1.6777
0.739804
0.518582
0.464704
0.451099
0.447506
0.446444
0.446102
0.446051
0.446051
0.446052
0.446078
0.446066
0.445944
0.44569
1.00057
1.00468
1.00776
1.01821
1.05513
1.14882
1.34192
1.68262
2.1779
2.7429
3.30344
3.81775
4.25359
4.606
4.88335
5.08478
5.2275
5.32884
5.38791
5.4168
5.42406
5.41967
5.41007
5.4035
5.40694
5.43123
5.50296
5.64654
5.90623
6.4384
7.45069
8.605
8.65824
7.34552
3.82419
1.40335
0.681565
0.505554
0.461014
0.449385
0.44622
0.445252
0.444939
0.444897
0.444897
0.444897
0.444924
0.444914
0.444797
0.444547
0.995314
0.986051
0.975026
0.963794
0.956929
0.962293
0.989758
1.058
1.18585
1.39353
1.69385
2.04887
2.4246
2.7884
3.124
3.41621
3.66554
3.87883
4.05558
4.20454
4.33262
4.44695
4.5548
4.66414
4.78532
4.93174
5.12712
5.39208
5.7853
6.40961
7.34923
8.07172
7.82159
6.19163
2.95247
1.14749
0.625656
0.492368
0.457098
0.447522
0.444815
0.443948
0.443666
0.443632
0.443632
0.443632
0.443659
0.443649
0.443537
0.443292
0.992842
0.978036
0.961904
0.944513
0.926947
0.911418
0.90071
0.900923
0.91591
0.954486
1.02683
1.13964
1.312
1.52559
1.77043
2.02772
2.28326
2.53207
2.76937
2.99552
3.21266
3.42476
3.63658
3.85463
4.08889
4.35129
4.66126
5.03632
5.52432
6.17971
6.91975
7.21276
6.7117
4.80013
2.15218
0.923901
0.574732
0.479567
0.453063
0.445525
0.443287
0.442522
0.442271
0.442246
0.442255
0.442254
0.442267
0.442254
0.442144
0.441909
0.991733
0.974728
0.956753
0.937639
0.917605
0.897298
0.877858
0.861025
0.848492
0.844667
0.852072
0.874391
0.920373
0.996554
1.11556
1.27586
1.45955
1.66257
1.88049
2.11046
2.35111
2.60253
2.86638
3.14614
3.44857
3.78235
4.1596
4.58955
5.09469
5.66237
6.11178
6.07862
5.32852
3.33866
1.48467
0.747451
0.531081
0.467686
0.448989
0.443364
0.441579
0.440907
0.440692
0.44067
0.440654
0.440646
0.440668
0.440653
0.440542
0.440323
0.991311
0.97356
0.955059
0.93565
0.915335
0.894326
0.873105
0.852362
0.833415
0.818011
0.808614
0.809318
0.8216
0.852758
0.913001
1.01284
1.13591
1.28268
1.45247
1.6444
1.8577
2.09205
2.34808
2.62787
2.93495
3.27325
3.64541
4.04876
4.47531
4.8543
4.98674
4.72371
3.73343
2.08485
1.01253
0.620569
0.496459
0.457231
0.444876
0.440904
0.439518
0.438923
0.438734
0.438727
0.438697
0.438653
0.438659
0.438637
0.438526
0.438337
0.991202
0.973274
0.954695
0.935344
0.915189
0.894325
0.872982
0.851607
0.831004
0.812546
0.798679
0.792946
0.796564
0.815261
0.861174
0.932295
1.02495
1.13865
1.27308
1.42831
1.60382
1.79987
2.01718
2.25683
2.51908
2.80282
3.10212
3.40158
3.66625
3.79745
3.70568
3.24011
2.2308
1.23346
0.724152
0.536292
0.470523
0.448046
0.440423
0.437752
0.436685
0.436146
0.435952
0.43594
0.435912
0.435816
0.435745
0.435721
0.435646
0.435512
0.991174
0.973125
0.954381
0.934849
0.914512
0.893451
0.871858
0.850098
0.828825
0.809191
0.793205
0.784035
0.784439
0.797118
0.832489
0.890379
0.96672
1.06041
1.17043
1.29564
1.43536
1.58914
1.75653
1.93619
2.12553
2.31803
2.50117
2.65263
2.72112
2.66943
2.41848
1.87478
1.22611
0.775759
0.567491
0.483369
0.451146
0.439201
0.434764
0.433005
0.432162
0.431657
0.431422
0.431366
0.431324
0.431207
0.431095
0.431055
0.430992
0.430927
0.991056
0.972519
0.953017
0.932491
0.910987
0.888641
0.865687
0.842493
0.81962
0.797989
0.779158
0.765703
0.761339
0.767468
0.790881
0.8364
0.897923
0.973354
1.06038
1.15677
1.26051
1.3697
1.48199
1.59406
1.70024
1.79152
1.85385
1.86457
1.8124
1.64802
1.36037
1.01631
0.731226
0.564914
0.484649
0.449312
0.434561
0.428529
0.425973
0.424762
0.424044
0.423554
0.423266
0.423127
0.42303
0.422878
0.422817
0.422827
0.422794
0.422722
0.990701
0.970772
0.94915
0.925909
0.901283
0.875581
0.849168
0.822454
0.795963
0.770451
0.747138
0.728013
0.715985
0.714301
0.723156
0.750146
0.793489
0.847381
0.908468
0.973628
1.0398
1.10419
1.1631
1.21246
1.24634
1.25732
1.24264
1.18559
1.07756
0.929763
0.764803
0.621592
0.522311
0.464949
0.435509
0.421422
0.414861
0.411743
0.410143
0.409195
0.408526
0.408035
0.407707
0.407502
0.407349
0.407162
0.407117
0.407146
0.40713
0.40706
0.990018
0.966553
0.93937
0.909337
0.877511
0.844592
0.811256
0.778068
0.745552
0.714337
0.68525
0.659597
0.639376
0.627132
0.625075
0.63157
0.651141
0.680113
0.713162
0.747213
0.779276
0.806086
0.8245
0.831929
0.828036
0.80735
0.765362
0.707552
0.637766
0.565325
0.501387
0.452973
0.421034
0.402087
0.391588
0.38588
0.382692
0.380812
0.379619
0.378772
0.378117
0.377637
0.377314
0.377083
0.37691
0.376681
0.376595
0.376615
0.376599
0.376524
0.988901
0.953595
0.906712
0.856446
0.808983
0.761568
0.716366
0.673908
0.634596
0.598276
0.565027
0.535349
0.51045
0.491901
0.481008
0.478232
0.480555
0.488571
0.499987
0.511129
0.520142
0.525309
0.525788
0.521106
0.507289
0.486401
0.460573
0.432099
0.404083
0.379402
0.359602
0.345158
0.335439
0.329171
0.325152
0.322493
0.320663
0.319344
0.318387
0.317638
0.317039
0.316631
0.316389
0.316184
0.316017
0.315794
0.315664
0.315663
0.315638
0.315554
0.975764
0.843501
0.699615
0.594083
0.514201
0.453989
0.397293
0.351548
0.321599
0.295496
0.272842
0.253648
0.238202
0.226706
0.219095
0.214865
0.21315
0.213241
0.214333
0.215726
0.216874
0.217318
0.216719
0.214804
0.211563
0.207376
0.202679
0.197963
0.193684
0.190113
0.187258
0.185101
0.183553
0.18247
0.181717
0.181179
0.180781
0.180476
0.180243
0.180063
0.179927
0.179838
0.179786
0.179753
0.179729
0.179701
0.179676
0.179665
0.179659
0.179644
)
;

boundaryField
{
    AXIS
    {
        type            empty;
    }
    OUTLET
    {
        type            zeroGradient;
    }
    COFLOW
    {
        type            fixedValue;
        value           uniform 1;
    }
    PILOT
    {
        type            fixedValue;
        value           uniform 1;
    }
    FUEL
    {
        type            fixedValue;
        value           uniform 5;
    }
    WALL
    {
        type            compressible::kqRWallFunction;
        value           nonuniform List<scalar> 
50
(
0.975764
0.843501
0.699615
0.594083
0.514201
0.453989
0.397293
0.351548
0.321599
0.295496
0.272842
0.253648
0.238202
0.226706
0.219095
0.214865
0.21315
0.213241
0.214333
0.215726
0.216874
0.217318
0.216719
0.214804
0.211563
0.207376
0.202679
0.197963
0.193684
0.190113
0.187258
0.185101
0.183553
0.18247
0.181717
0.181179
0.180781
0.180476
0.180243
0.180063
0.179927
0.179838
0.179786
0.179753
0.179729
0.179701
0.179676
0.179665
0.179659
0.179644
)
;
    }
    front
    {
        type            wedge;
    }
    back
    {
        type            wedge;
    }
}


// ************************************************************************* //
