/*--------------------------------*- C++ -*----------------------------------*\
| =========                 |                                                 |
| \\      /  F ield         | OpenFOAM: The Open Source CFD Toolbox           |
|  \\    /   O peration     | Version:  2.4.x                                 |
|   \\  /    A nd           | Web:      www.OpenFOAM.org                      |
|    \\/     M anipulation  |                                                 |
\*---------------------------------------------------------------------------*/
FoamFile
{
    version     2.0;
    format      ascii;
    class       surfaceScalarField;
    location    "0.05";
    object      phi;
}
// * * * * * * * * * * * * * * * * * * * * * * * * * * * * * * * * * * * * * //

dimensions      [1 0 -1 0 0 0 0];

internalField   nonuniform List<scalar> 
2425
(
1.06623e-06
-1.55482e-08
1.03574e-06
3.04666e-08
9.77022e-07
5.8701e-08
9.10423e-07
6.65879e-08
8.44453e-07
6.59612e-08
7.82312e-07
6.21306e-08
7.28205e-07
5.40943e-08
6.78371e-07
4.98169e-08
6.32286e-07
4.60707e-08
5.87649e-07
4.46263e-08
5.47446e-07
4.01959e-08
5.12318e-07
3.51194e-08
4.79593e-07
3.2714e-08
4.51109e-07
2.84773e-08
4.24689e-07
2.64134e-08
4.01405e-07
2.32778e-08
3.80171e-07
2.12278e-08
3.61364e-07
1.88009e-08
3.43866e-07
1.74943e-08
3.27982e-07
1.58825e-08
3.13504e-07
1.44772e-08
2.99767e-07
1.37368e-08
2.87197e-07
1.25639e-08
2.75159e-07
1.20359e-08
2.63191e-07
1.19603e-08
2.517e-07
1.14833e-08
2.40437e-07
1.12855e-08
2.28871e-07
1.14436e-08
2.1699e-07
1.20325e-08
2.03603e-07
1.36902e-08
1.86398e-07
1.73699e-08
1.61959e-07
2.38961e-08
1.37167e-07
2.57998e-08
1.23537e-07
2.30547e-08
1.23682e-07
1.98116e-08
1.50908e-07
1.71192e-08
1.85421e-07
1.59359e-08
1.96412e-07
1.0474e-08
1.94888e-07
6.67066e-09
1.91192e-07
4.81071e-09
1.87922e-07
3.47842e-09
1.85464e-07
2.47081e-09
1.83684e-07
1.75383e-09
1.82384e-07
1.26769e-09
1.8143e-07
9.22106e-10
1.80719e-07
6.82302e-10
1.80174e-07
5.192e-10
1.79766e-07
3.88389e-10
1.79426e-07
3.2688e-10
1.90174e-10
3.21178e-06
-7.53804e-08
3.07369e-06
1.68489e-07
2.87616e-06
2.56181e-07
2.67164e-06
2.71075e-07
2.47385e-06
2.6372e-07
2.29534e-06
2.4062e-07
2.13606e-06
2.13334e-07
1.98852e-06
1.973e-07
1.8472e-06
1.87354e-07
1.71899e-06
1.72802e-07
1.6041e-06
1.55072e-07
1.50118e-06
1.38009e-07
1.40839e-06
1.25484e-07
1.32523e-06
1.11614e-07
1.2499e-06
1.01718e-07
1.1817e-06
9.14655e-08
1.12081e-06
8.20998e-08
1.06577e-06
7.3831e-08
1.01563e-06
6.7619e-08
9.69683e-07
6.18274e-08
9.2692e-07
5.72407e-08
8.87322e-07
5.33345e-08
8.50792e-07
4.90765e-08
8.16297e-07
4.65243e-08
7.81891e-07
4.63481e-08
7.48147e-07
4.52059e-08
7.15071e-07
4.44271e-08
6.81203e-07
4.49668e-08
6.46302e-07
4.73894e-08
6.0711e-07
5.38026e-08
5.5644e-07
6.85129e-08
4.85433e-07
9.34519e-08
4.13697e-07
1.0181e-07
3.74482e-07
9.11387e-08
3.74904e-07
7.90538e-08
4.56184e-07
6.90323e-08
5.58529e-07
6.43804e-08
5.89985e-07
4.30396e-08
5.84875e-07
2.71277e-08
5.73516e-07
1.94924e-08
5.63618e-07
1.39969e-08
5.56176e-07
9.95002e-09
5.50791e-07
7.06022e-09
5.4686e-07
5.10273e-09
5.4397e-07
3.71688e-09
5.41815e-07
2.74955e-09
5.40166e-07
2.09197e-09
5.38929e-07
1.56581e-09
5.37905e-07
1.31302e-09
7.67917e-10
5.25881e-06
-8.03109e-08
4.91685e-06
5.10337e-07
4.54212e-06
6.3082e-07
4.19923e-06
6.13914e-07
3.8931e-06
5.69801e-07
3.61868e-06
5.14993e-07
3.35648e-06
4.75482e-07
3.11384e-06
4.39864e-07
2.89809e-06
4.03033e-07
2.70516e-06
3.65691e-07
2.53166e-06
3.28547e-07
2.37666e-06
2.92972e-07
2.23715e-06
2.64947e-07
2.11071e-06
2.38024e-07
1.99582e-06
2.1658e-07
1.89188e-06
1.95381e-07
1.79866e-06
1.75299e-07
1.71441e-06
1.58059e-07
1.63698e-06
1.45039e-07
1.56527e-06
1.33538e-07
1.49876e-06
1.23751e-07
1.43695e-06
1.1514e-07
1.38001e-06
1.05995e-07
1.3275e-06
9.90223e-08
1.27513e-06
9.86361e-08
1.22206e-06
9.82651e-08
1.16934e-06
9.7243e-08
1.11525e-06
9.85724e-08
1.05922e-06
1.04213e-07
9.96013e-07
1.18611e-07
9.13912e-07
1.51326e-07
8.00385e-07
2.05292e-07
6.87669e-07
2.2227e-07
6.26837e-07
2.00257e-07
6.29787e-07
1.74779e-07
7.66415e-07
1.55294e-07
9.34889e-07
1.44997e-07
9.85081e-07
9.79475e-08
9.756e-07
6.17942e-08
9.56407e-07
4.41419e-08
9.39836e-07
3.15851e-08
9.27421e-07
2.24239e-08
9.18447e-07
1.59034e-08
9.11896e-07
1.1492e-08
9.07081e-07
8.37297e-09
9.03491e-07
6.19268e-09
9.00748e-07
4.70837e-09
8.9869e-07
3.52488e-09
8.96993e-07
2.94569e-09
1.71657e-09
6.9355e-06
3.42233e-07
6.23703e-06
1.20867e-06
5.70099e-06
1.16673e-06
5.27643e-06
1.03838e-06
4.88314e-06
9.63051e-07
4.52254e-06
8.75539e-07
4.20687e-06
7.91079e-07
3.92861e-06
7.18015e-07
3.67965e-06
6.51906e-07
3.45647e-06
5.88824e-07
3.2555e-06
5.29481e-07
3.07388e-06
4.74552e-07
2.90808e-06
4.30692e-07
2.75644e-06
3.8963e-07
2.61828e-06
3.54697e-07
2.49277e-06
3.20862e-07
2.37919e-06
2.88858e-07
2.27506e-06
2.6217e-07
2.17856e-06
2.41522e-07
2.08878e-06
2.23321e-07
2.00518e-06
2.07347e-07
1.92739e-06
1.92932e-07
1.85557e-06
1.77787e-07
1.78903e-06
1.65539e-07
1.72529e-06
1.62255e-07
1.65981e-06
1.63702e-07
1.59085e-06
1.6633e-07
1.51974e-06
1.69166e-07
1.44528e-06
1.79801e-07
1.3608e-06
2.04562e-07
1.25017e-06
2.6279e-07
1.09956e-06
3.54642e-07
9.54466e-07
3.9822e-07
8.77194e-07
3.49226e-07
8.86584e-07
3.01759e-07
1.08143e-06
2.74867e-07
1.31426e-06
2.55422e-07
1.38138e-06
1.74131e-07
1.36672e-06
1.10799e-07
1.33968e-06
7.86335e-08
1.31654e-06
5.61162e-08
1.29927e-06
3.97715e-08
1.28679e-06
2.81896e-08
1.27769e-06
2.03682e-08
1.271e-06
1.48408e-08
1.26601e-06
1.09748e-08
1.2622e-06
8.33856e-09
1.25935e-06
6.24064e-09
1.257e-06
5.20104e-09
3.02284e-09
7.10361e-06
2.70113e-06
6.29813e-06
2.01399e-06
5.88553e-06
1.57915e-06
5.49523e-06
1.42855e-06
5.16678e-06
1.29142e-06
4.87579e-06
1.16645e-06
4.60844e-06
1.05834e-06
4.3625e-06
9.63837e-07
4.13384e-06
8.80458e-07
3.92436e-06
7.98251e-07
3.73211e-06
7.21688e-07
3.55334e-06
6.53271e-07
3.38808e-06
5.95887e-07
3.23426e-06
5.43389e-07
3.09014e-06
4.98771e-07
2.95804e-06
4.52919e-07
2.83763e-06
4.09233e-07
2.72524e-06
3.74541e-07
2.62036e-06
3.46374e-07
2.52197e-06
3.21701e-07
2.42986e-06
2.99455e-07
2.34351e-06
2.79273e-07
2.2631e-06
2.58184e-07
2.18816e-06
2.40428e-07
2.11594e-06
2.34326e-07
2.04503e-06
2.34592e-07
1.96884e-06
2.42435e-07
1.88476e-06
2.52828e-07
1.79582e-06
2.70261e-07
1.69355e-06
3.08731e-07
1.55815e-06
3.98969e-07
1.38079e-06
5.35547e-07
1.21182e-06
5.89368e-07
1.12388e-06
5.35304e-07
1.14418e-06
4.51575e-07
1.40205e-06
4.33755e-07
1.69701e-06
3.91622e-07
1.77879e-06
2.69734e-07
1.75797e-06
1.74179e-07
1.72312e-06
1.22743e-07
1.6936e-06
8.73482e-08
1.67166e-06
6.17928e-08
1.65584e-06
4.37727e-08
1.64428e-06
3.16289e-08
1.63579e-06
2.30466e-08
1.62946e-06
1.70416e-08
1.62463e-06
1.29401e-08
1.62101e-06
9.67686e-09
1.61805e-06
8.04476e-09
4.66758e-09
3.30792e-06
-3.40664e-09
4.34676e-06
9.75001e-07
4.69869e-06
1.22699e-06
4.76267e-06
1.36438e-06
4.72446e-06
1.32951e-06
4.62938e-06
1.26143e-06
4.50236e-06
1.18525e-06
4.36285e-06
1.10322e-06
4.22116e-06
1.02203e-06
4.08332e-06
9.3602e-07
3.94809e-06
8.56863e-07
3.81151e-06
7.8979e-07
3.67334e-06
7.33992e-07
3.53462e-06
6.82038e-07
3.40187e-06
6.31445e-07
3.27873e-06
5.76008e-07
3.16462e-06
5.23299e-07
3.05626e-06
4.82861e-07
2.95365e-06
4.48955e-07
2.85645e-06
4.18883e-07
2.76459e-06
3.91308e-07
2.67747e-06
3.66375e-07
2.59504e-06
3.40617e-07
2.51738e-06
3.18017e-07
2.44185e-06
3.09683e-07
2.36679e-06
3.0967e-07
2.28936e-06
3.19749e-07
2.20239e-06
3.39477e-07
2.10393e-06
3.70686e-07
1.98796e-06
4.2725e-07
1.83194e-06
5.55138e-07
1.63287e-06
7.3939e-07
1.45302e-06
7.99571e-07
1.36361e-06
7.53526e-07
1.40056e-06
6.21839e-07
1.72739e-06
6.25426e-07
2.08268e-06
5.46608e-07
2.17681e-06
3.81872e-07
2.14895e-06
2.51643e-07
2.10653e-06
1.7599e-07
2.07098e-06
1.24893e-07
2.04465e-06
8.82064e-08
2.02566e-06
6.24543e-08
2.01179e-06
4.51374e-08
2.00159e-06
3.28932e-08
1.99399e-06
2.4322e-08
1.98819e-06
1.8458e-08
1.98386e-06
1.37871e-08
1.98033e-06
1.14345e-08
6.62706e-09
1.51645e-06
-8.06774e-07
2.61596e-06
-1.24743e-07
3.33694e-06
5.05725e-07
3.76032e-06
9.40786e-07
3.98603e-06
1.10364e-06
4.08856e-06
1.15879e-06
4.11885e-06
1.15484e-06
4.10216e-06
1.11977e-06
4.05779e-06
1.06627e-06
3.99732e-06
9.96384e-07
3.92471e-06
9.29418e-07
3.84215e-06
8.72271e-07
3.75452e-06
8.21531e-07
3.66243e-06
7.74047e-07
3.56334e-06
7.30434e-07
3.46201e-06
6.77266e-07
3.36505e-06
6.20186e-07
3.27116e-06
5.76706e-07
3.18043e-06
5.39638e-07
3.0931e-06
5.0619e-07
3.00913e-06
4.75272e-07
2.92795e-06
4.47554e-07
2.84926e-06
4.19335e-07
2.77422e-06
3.92965e-07
2.70079e-06
3.82961e-07
2.62629e-06
3.84263e-07
2.54804e-06
3.97868e-07
2.46264e-06
4.24911e-07
2.36433e-06
4.71179e-07
2.23609e-06
5.58917e-07
2.06358e-06
7.25975e-07
1.85672e-06
9.5374e-07
1.67856e-06
1.02049e-06
1.59426e-06
9.92022e-07
1.65595e-06
8.20383e-07
2.05632e-06
8.47184e-07
2.47125e-06
7.09576e-07
2.57473e-06
5.07741e-07
2.53927e-06
3.4246e-07
2.48975e-06
2.37626e-07
2.44866e-06
1.68209e-07
2.41828e-06
1.18659e-07
2.39638e-06
8.39925e-08
2.38036e-06
6.07295e-08
2.36857e-06
4.42644e-08
2.35977e-06
3.27306e-08
2.35307e-06
2.48266e-08
2.34808e-06
1.85165e-08
2.34402e-06
1.53233e-08
8.877e-09
9.35744e-07
-9.1957e-07
1.58775e-06
-7.77014e-07
2.2949e-06
-2.01679e-07
2.84467e-06
3.90805e-07
3.21927e-06
7.28865e-07
3.45813e-06
9.19801e-07
3.60961e-06
1.00324e-06
3.69828e-06
1.03095e-06
3.74548e-06
1.01893e-06
3.76313e-06
9.78615e-07
3.75642e-06
9.3603e-07
3.73163e-06
8.96936e-07
3.69418e-06
8.58864e-07
3.6477e-06
8.20396e-07
3.59459e-06
7.83417e-07
3.53054e-06
7.41205e-07
3.45837e-06
6.92272e-07
3.38608e-06
6.48921e-07
3.3137e-06
6.11978e-07
3.24173e-06
5.78156e-07
3.17051e-06
5.46502e-07
3.10023e-06
5.1787e-07
3.02989e-06
4.89774e-07
2.96141e-06
4.61362e-07
2.89438e-06
4.49903e-07
2.82518e-06
4.53655e-07
2.7504e-06
4.72587e-07
2.6667e-06
5.09233e-07
2.56835e-06
5.72184e-07
2.43545e-06
6.94131e-07
2.25757e-06
9.059e-07
2.0529e-06
1.17222e-06
1.88532e-06
1.24432e-06
1.8143e-06
1.24468e-06
1.91499e-06
1.04903e-06
2.39235e-06
1.09696e-06
2.86556e-06
9.78416e-07
2.97151e-06
6.48469e-07
2.92853e-06
4.45203e-07
2.87266e-06
3.06657e-07
2.82667e-06
2.16599e-07
2.79264e-06
1.52733e-07
2.7681e-06
1.08109e-07
2.75011e-06
7.82174e-08
2.73686e-06
5.7028e-08
2.72697e-06
4.21699e-08
2.71944e-06
3.19713e-08
2.71385e-06
2.38044e-08
2.70932e-06
1.96608e-08
1.13912e-08
7.95358e-07
-7.82177e-07
1.04811e-06
-1.02991e-06
1.59869e-06
-7.52394e-07
2.13769e-06
-1.48345e-07
2.55905e-06
3.07352e-07
2.87237e-06
6.06339e-07
3.0987e-06
7.76771e-07
3.26159e-06
8.67909e-07
3.37825e-06
9.02103e-07
3.45885e-06
8.97851e-07
3.50888e-06
8.85859e-07
3.53592e-06
8.69719e-07
3.54543e-06
8.49184e-07
3.54061e-06
8.25048e-07
3.52519e-06
7.98674e-07
3.49876e-06
7.67503e-07
3.45941e-06
7.31522e-07
3.41258e-06
6.95675e-07
3.36253e-06
6.62012e-07
3.31036e-06
6.30354e-07
3.25681e-06
6.00137e-07
3.20217e-06
5.72636e-07
3.14557e-06
5.46602e-07
3.08774e-06
5.19452e-07
3.02962e-06
5.08091e-07
2.96889e-06
5.14733e-07
2.90096e-06
5.40688e-07
2.82286e-06
5.88794e-07
2.72743e-06
6.70657e-07
2.59402e-06
8.31131e-07
2.41861e-06
1.08857e-06
2.22402e-06
1.3934e-06
2.07361e-06
1.47132e-06
2.02411e-06
1.50511e-06
2.17599e-06
1.29889e-06
2.73997e-06
1.38609e-06
3.26089e-06
1.25315e-06
3.36562e-06
8.01966e-07
3.31642e-06
5.57292e-07
3.25516e-06
3.81848e-07
3.20501e-06
2.69274e-07
3.16779e-06
1.89959e-07
3.14091e-06
1.34498e-07
3.12116e-06
9.73958e-08
3.10659e-06
7.10397e-08
3.09571e-06
5.25337e-08
3.08744e-06
3.98105e-08
3.08131e-06
2.95854e-08
3.07636e-06
2.43918e-08
1.41397e-08
9.54785e-07
-6.94334e-07
9.74914e-07
-1.04992e-06
1.27233e-06
-1.04962e-06
1.67726e-06
-5.53317e-07
2.06515e-06
-8.0637e-08
2.38854e-06
2.82814e-07
2.64808e-06
5.1708e-07
2.8488e-06
6.67011e-07
2.99933e-06
7.51369e-07
3.11049e-06
7.86461e-07
3.19346e-06
8.02653e-07
3.25413e-06
8.08781e-07
3.29771e-06
8.05361e-07
3.32899e-06
7.93529e-07
3.35441e-06
7.73151e-07
3.37227e-06
7.49544e-07
3.37206e-06
7.31653e-07
3.35637e-06
7.11257e-07
3.33322e-06
6.85116e-07
3.30509e-06
6.58468e-07
3.27353e-06
6.3177e-07
3.23951e-06
6.06791e-07
3.20214e-06
5.84199e-07
3.16009e-06
5.61816e-07
3.11465e-06
5.53828e-07
3.065e-06
5.65025e-07
3.00661e-06
5.99696e-07
2.93682e-06
6.60988e-07
2.84676e-06
7.64649e-07
2.71767e-06
9.65907e-07
2.55693e-06
1.26513e-06
2.37929e-06
1.60966e-06
2.24644e-06
1.70722e-06
2.22512e-06
1.774e-06
2.44105e-06
1.56705e-06
3.09441e-06
1.68947e-06
3.65469e-06
1.52585e-06
3.7569e-06
9.64278e-07
3.70274e-06
6.76349e-07
3.63722e-06
4.61968e-07
3.58369e-06
3.25409e-07
3.54378e-06
2.29842e-07
3.51487e-06
1.62842e-07
3.49357e-06
1.18049e-07
3.47783e-06
8.61487e-08
3.46608e-06
6.37103e-08
3.45714e-06
4.82585e-08
3.45055e-06
3.5792e-08
3.44523e-06
2.94587e-08
1.70909e-08
1.8171e-06
-1.47049e-07
1.53026e-06
-7.62823e-07
1.41511e-06
-9.34063e-07
1.56605e-06
-7.04095e-07
1.84941e-06
-3.63967e-07
2.14475e-06
-1.26072e-08
2.41059e-06
2.51065e-07
2.63888e-06
4.38476e-07
2.82776e-06
5.62195e-07
2.97109e-06
6.42781e-07
3.0788e-06
6.94486e-07
3.16375e-06
7.23344e-07
3.23088e-06
7.37744e-07
3.28611e-06
7.37832e-07
3.33735e-06
7.21652e-07
3.38277e-06
7.03937e-07
3.41331e-06
7.00991e-07
3.42982e-06
6.94706e-07
3.43711e-06
6.77897e-07
3.43676e-06
6.58974e-07
3.4301e-06
6.38707e-07
3.41775e-06
6.19496e-07
3.39943e-06
6.03005e-07
3.37391e-06
5.87987e-07
3.34173e-06
5.86899e-07
3.30279e-06
6.05047e-07
3.25387e-06
6.50157e-07
3.19093e-06
7.2767e-07
3.10265e-06
8.58585e-07
2.9752e-06
1.10286e-06
2.82053e-06
1.44539e-06
2.65804e-06
1.8272e-06
2.54754e-06
1.96277e-06
2.56029e-06
2.05127e-06
2.87317e-06
1.85957e-06
3.66619e-06
2.05317e-06
4.28986e-06
1.80603e-06
4.39425e-06
1.14159e-06
4.33326e-06
8.07119e-07
4.2605e-06
5.5055e-07
4.20106e-06
3.87645e-07
4.15647e-06
2.74348e-07
4.12405e-06
1.9458e-07
4.10009e-06
1.41248e-07
4.08234e-06
1.03151e-07
4.06909e-06
7.62877e-08
4.059e-06
5.77568e-08
4.0516e-06
4.27434e-08
4.04565e-06
3.51157e-08
2.03945e-08
2.75169e-06
3.61532e-08
2.41429e-06
-4.25553e-07
2.05522e-06
-5.74876e-07
1.90448e-06
-5.53244e-07
1.96728e-06
-4.26446e-07
2.15755e-06
-2.02848e-07
2.39032e-06
1.80822e-08
2.62082e-06
2.07564e-07
2.82713e-06
3.55351e-07
3.00729e-06
4.6193e-07
3.16086e-06
5.40131e-07
3.28917e-06
5.9416e-07
3.39652e-06
6.29529e-07
3.48712e-06
6.46453e-07
3.55706e-06
6.51201e-07
3.60918e-06
6.51537e-07
3.65673e-06
6.53454e-07
3.69894e-06
6.52718e-07
3.73293e-06
6.44334e-07
3.75886e-06
6.33676e-07
3.77688e-06
6.2154e-07
3.78749e-06
6.09929e-07
3.79032e-06
6.01455e-07
3.78375e-06
5.95991e-07
3.76715e-06
6.05309e-07
3.74061e-06
6.34011e-07
3.70245e-06
6.91671e-07
3.64635e-06
7.89732e-07
3.55831e-06
9.56004e-07
3.43557e-06
1.24492e-06
3.2859e-06
1.6375e-06
3.13617e-06
2.05732e-06
3.05041e-06
2.24963e-06
3.11344e-06
2.36135e-06
3.5881e-06
2.19812e-06
4.60299e-06
2.44898e-06
5.32645e-06
2.10207e-06
5.4388e-06
1.34185e-06
5.37031e-06
9.54027e-07
5.28613e-06
6.52641e-07
5.2172e-06
4.59716e-07
5.16499e-06
3.26375e-07
5.12684e-06
2.31865e-07
5.09853e-06
1.68603e-07
5.0775e-06
1.23248e-07
5.06178e-06
9.11562e-08
5.04983e-06
6.89727e-08
5.04109e-06
5.0917e-08
5.0341e-06
4.17369e-08
2.42699e-08
3.58005e-06
1.03957e-07
3.3105e-06
-1.56741e-07
2.99023e-06
-2.5544e-07
2.70663e-06
-2.70526e-07
2.53204e-06
-2.5248e-07
2.49867e-06
-1.7014e-07
2.57646e-06
-6.04513e-08
2.72219e-06
6.07137e-08
2.89656e-06
1.79605e-07
3.07308e-06
2.83789e-07
3.23597e-06
3.75363e-07
3.38213e-06
4.46051e-07
3.51345e-06
4.96408e-07
3.6301e-06
5.2838e-07
3.73232e-06
5.48113e-07
3.82219e-06
5.6142e-07
3.90348e-06
5.72512e-07
3.97692e-06
5.80236e-07
4.04077e-06
5.81928e-07
4.0951e-06
5.81198e-07
4.14003e-06
5.78941e-07
4.17574e-06
5.76964e-07
4.202e-06
5.78186e-07
4.21723e-06
5.84117e-07
4.22048e-06
6.06028e-07
4.2109e-06
6.48709e-07
4.18689e-06
7.23648e-07
4.14159e-06
8.46181e-07
4.05884e-06
1.05658e-06
3.94265e-06
1.39387e-06
3.8035e-06
1.84044e-06
3.68455e-06
2.30048e-06
3.63925e-06
2.57015e-06
3.78574e-06
2.70927e-06
4.50276e-06
2.60046e-06
5.78968e-06
2.84795e-06
6.61323e-06
2.39578e-06
6.73348e-06
1.5598e-06
6.66112e-06
1.11256e-06
6.56599e-06
7.67629e-07
6.48751e-06
5.4162e-07
6.42731e-06
3.86248e-07
6.383e-06
2.75067e-07
6.34995e-06
2.00444e-07
6.32531e-06
1.46715e-07
6.30688e-06
1.08521e-07
6.29288e-06
8.20539e-08
6.28268e-06
6.04038e-08
6.27459e-06
4.93698e-08
2.87421e-08
4.53037e-06
1.13178e-07
4.35703e-06
1.51022e-08
4.11655e-06
-1.71611e-08
3.85795e-06
-1.49256e-08
3.6073e-06
-5.74268e-09
3.39857e-06
3.42425e-08
3.26119e-06
7.22368e-08
3.21062e-06
1.06262e-07
3.23168e-06
1.53393e-07
3.30442e-06
2.05703e-07
3.41094e-06
2.63445e-07
3.53299e-06
3.18859e-07
3.65997e-06
3.65126e-07
3.78461e-06
4.00724e-07
3.90449e-06
4.26848e-07
4.02042e-06
4.45535e-07
4.13179e-06
4.62528e-07
4.23728e-06
4.7723e-07
4.33526e-06
4.87326e-07
4.42466e-06
4.9585e-07
4.50481e-06
5.03694e-07
4.57475e-06
5.12269e-07
4.63324e-06
5.25561e-07
4.67866e-06
5.44973e-07
4.70949e-06
5.82258e-07
4.72424e-06
6.42715e-07
4.71902e-06
7.42018e-07
4.68481e-06
8.98803e-07
4.61083e-06
1.1597e-06
4.50641e-06
1.54906e-06
4.3864e-06
2.04855e-06
4.31556e-06
2.56646e-06
4.33993e-06
2.92505e-06
4.63638e-06
3.10255e-06
5.6927e-06
3.09248e-06
7.30789e-06
3.33405e-06
8.21437e-06
2.66696e-06
8.34112e-06
1.78692e-06
8.26746e-06
1.27805e-06
8.16311e-06
8.93309e-07
8.07583e-06
6.32439e-07
8.00786e-06
4.53662e-07
7.95734e-06
3.24166e-07
7.91941e-06
2.36834e-07
7.89101e-06
1.73644e-07
7.86972e-06
1.28457e-07
7.85358e-06
9.7048e-08
7.84187e-06
7.12176e-08
7.83267e-06
5.79879e-08
3.37881e-08
5.66524e-06
1.03619e-07
5.56139e-06
1.16652e-07
5.39717e-06
1.43609e-07
5.20434e-06
1.72554e-07
4.98748e-06
2.03568e-07
4.76805e-06
2.43083e-07
4.55063e-06
2.7619e-07
4.34625e-06
2.93623e-07
4.17564e-06
3.04894e-07
4.05522e-06
3.06051e-07
3.99753e-06
3.0187e-07
4.00135e-06
2.97751e-07
4.04972e-06
3.03321e-07
4.13012e-06
3.11771e-07
4.23449e-06
3.18957e-07
4.35226e-06
3.28087e-07
4.47694e-06
3.40981e-07
4.60256e-06
3.56917e-07
4.72438e-06
3.72574e-07
4.84112e-06
3.87375e-07
4.95119e-06
4.02457e-07
5.05175e-06
4.20773e-07
5.14046e-06
4.46188e-07
5.21462e-06
4.80898e-07
5.27122e-06
5.36692e-07
5.30691e-06
6.19795e-07
5.31754e-06
7.50074e-07
5.29639e-06
9.50929e-07
5.23331e-06
1.26867e-06
5.13942e-06
1.71805e-06
5.05468e-06
2.26778e-06
5.05478e-06
2.85803e-06
5.19563e-06
3.31614e-06
5.77744e-06
3.53175e-06
7.33035e-06
3.66151e-06
9.27388e-06
3.70413e-06
1.02122e-05
2.90866e-06
1.0339e-05
2.01482e-06
1.02665e-05
1.4452e-06
1.01558e-05
1.0259e-06
1.00617e-05
7.29989e-07
9.98707e-06
5.27338e-07
9.9309e-06
3.78491e-07
9.8884e-06
2.77378e-07
9.85636e-06
2.03804e-07
9.83231e-06
1.50808e-07
9.81408e-06
1.13826e-07
9.80093e-06
8.32409e-08
9.79074e-06
6.745e-08
3.93125e-08
7.06242e-06
9.45596e-08
7.00305e-06
1.72945e-07
6.90092e-06
2.41012e-07
6.76582e-06
3.00191e-07
6.60337e-06
3.54257e-07
6.42745e-06
4.02439e-07
6.23376e-06
4.45513e-07
6.01688e-06
4.75906e-07
5.78696e-06
4.91493e-07
5.55096e-06
4.92346e-07
5.32736e-06
4.68757e-07
5.1389e-06
4.29323e-07
5.00895e-06
3.83112e-07
4.95085e-06
3.34293e-07
4.95922e-06
2.90827e-07
5.01794e-06
2.60605e-07
5.11082e-06
2.46388e-07
5.22525e-06
2.45297e-07
5.35057e-06
2.52788e-07
5.47845e-06
2.66645e-07
5.60315e-06
2.85802e-07
5.71986e-06
3.12395e-07
5.82432e-06
3.50345e-07
5.91205e-06
4.02566e-07
5.97908e-06
4.80811e-07
6.02031e-06
5.94243e-07
6.03172e-06
7.64782e-07
6.01272e-06
1.0183e-06
5.95441e-06
1.39933e-06
5.86931e-06
1.91812e-06
5.8316e-06
2.51989e-06
5.94094e-06
3.20245e-06
6.29757e-06
3.73643e-06
7.38117e-06
4.01028e-06
9.55323e-06
4.28841e-06
1.1806e-05
4.21402e-06
1.27099e-05
3.11488e-06
1.28235e-05
2.23819e-06
1.27533e-05
1.60665e-06
1.26413e-05
1.15906e-06
1.25439e-05
8.30236e-07
1.24652e-05
6.04546e-07
1.24049e-05
4.36366e-07
1.23588e-05
3.20958e-07
1.23238e-05
2.3645e-07
1.22974e-05
1.75036e-07
1.22774e-05
1.31975e-07
1.22631e-05
9.6154e-08
1.22522e-05
7.74523e-08
4.51238e-08
8.81074e-06
8.84031e-08
8.78055e-06
1.99311e-07
8.72196e-06
2.93757e-07
8.63636e-06
3.76585e-07
8.52416e-06
4.51835e-07
8.38609e-06
5.1751e-07
8.22575e-06
5.70416e-07
8.04849e-06
6.05514e-07
7.84583e-06
6.31576e-07
7.61599e-06
6.37083e-07
7.36352e-06
6.18685e-07
7.09273e-06
5.81674e-07
6.83357e-06
5.16954e-07
6.62075e-06
4.31316e-07
6.47721e-06
3.43418e-07
6.4022e-06
2.67415e-07
6.3846e-06
2.13728e-07
6.41209e-06
1.81317e-07
6.46929e-06
1.67849e-07
6.54431e-06
1.70458e-07
6.62747e-06
1.85709e-07
6.71064e-06
2.1555e-07
6.78711e-06
2.63331e-07
6.84882e-06
3.33834e-07
6.89137e-06
4.37353e-07
6.91058e-06
5.8806e-07
6.90221e-06
8.06432e-07
6.86869e-06
1.12105e-06
6.80038e-06
1.57588e-06
6.73134e-06
2.16077e-06
6.79597e-06
2.83174e-06
7.09555e-06
3.59552e-06
7.86595e-06
4.19028e-06
9.75096e-06
4.52827e-06
1.261e-05
4.81068e-06
1.49428e-05
4.46032e-06
1.57741e-05
3.25265e-06
1.59013e-05
2.41277e-06
1.58432e-05
1.74667e-06
1.57394e-05
1.28148e-06
1.56452e-05
9.26259e-07
1.5567e-05
6.80451e-07
1.55056e-05
4.94609e-07
1.5458e-05
3.65379e-07
1.54213e-05
2.70059e-07
1.53936e-05
2.0003e-07
1.53725e-05
1.50663e-07
1.53575e-05
1.09355e-07
1.53463e-05
8.74841e-08
5.09162e-08
1.10053e-05
8.28943e-08
1.09937e-05
2.06411e-07
1.09657e-05
3.15078e-07
1.0919e-05
4.12871e-07
1.08522e-05
5.02288e-07
1.07613e-05
5.82478e-07
1.06443e-05
6.4708e-07
1.04997e-05
6.94539e-07
1.03294e-05
7.18657e-07
1.01384e-05
7.22121e-07
9.90655e-06
7.07008e-07
9.64122e-06
6.65655e-07
9.36429e-06
5.88694e-07
9.09238e-06
4.90962e-07
8.84684e-06
3.79799e-07
8.64527e-06
2.82428e-07
8.49194e-06
2.05515e-07
8.38312e-06
1.52979e-07
8.31051e-06
1.24167e-07
8.26468e-06
1.17402e-07
8.23827e-06
1.28995e-07
8.22096e-06
1.62712e-07
8.20381e-06
2.22566e-07
8.18034e-06
3.14309e-07
8.14533e-06
4.47736e-07
8.09225e-06
6.41337e-07
8.02975e-06
9.16872e-07
7.96203e-06
1.30298e-06
7.88404e-06
1.82594e-06
7.88479e-06
2.47539e-06
8.15354e-06
3.22713e-06
8.82209e-06
4.04234e-06
1.03884e-05
4.64644e-06
1.3391e-05
5.02617e-06
1.67397e-05
5.06286e-06
1.88785e-05
4.45568e-06
1.95814e-05
3.32772e-06
1.97221e-05
2.51736e-06
1.96845e-05
1.85147e-06
1.96012e-05
1.37924e-06
1.95188e-05
1.00872e-06
1.94478e-05
7.47982e-07
1.939e-05
5.48229e-07
1.93442e-05
4.07027e-07
1.93083e-05
3.02037e-07
1.92809e-05
2.23893e-07
1.92601e-05
1.68483e-07
1.92454e-05
1.2184e-07
1.92345e-05
9.68157e-08
5.6297e-08
1.37592e-05
7.63277e-08
1.37603e-05
2.00261e-07
1.37548e-05
3.13231e-07
1.3739e-05
4.17796e-07
1.37126e-05
5.14534e-07
1.36715e-05
6.01092e-07
1.36088e-05
6.73857e-07
1.35165e-05
7.30204e-07
1.33862e-05
7.61729e-07
1.32098e-05
7.67959e-07
1.30133e-05
7.39779e-07
1.27971e-05
6.81129e-07
1.25345e-05
5.9019e-07
1.22372e-05
4.88773e-07
1.19239e-05
3.71224e-07
1.16179e-05
2.76063e-07
1.13345e-05
1.97537e-07
1.10792e-05
1.45458e-07
1.08556e-05
1.16052e-07
1.0658e-05
1.10582e-07
1.04813e-05
1.30828e-07
1.03194e-05
1.78227e-07
1.01671e-05
2.57593e-07
1.00171e-05
3.77285e-07
9.86916e-06
5.50304e-07
9.72157e-06
7.97274e-07
9.58783e-06
1.13353e-06
9.4909e-06
1.60973e-06
9.46053e-06
2.18205e-06
9.67441e-06
2.90621e-06
1.03556e-05
3.72084e-06
1.17714e-05
4.54577e-06
1.45698e-05
5.13912e-06
1.85439e-05
5.41671e-06
2.19297e-05
5.14538e-06
2.36726e-05
4.27118e-06
2.42863e-05
3.28385e-06
2.4454e-05
2.5292e-06
2.44585e-05
1.89561e-06
2.44122e-05
1.4344e-06
2.4355e-05
1.06372e-06
2.4301e-05
7.96944e-07
2.42539e-05
5.89821e-07
2.42151e-05
4.40476e-07
2.41837e-05
3.28411e-07
2.41593e-05
2.43726e-07
2.41407e-05
1.83292e-07
2.41275e-05
1.32108e-07
2.41181e-05
1.04255e-07
6.054e-08
1.72151e-05
6.7587e-08
1.7227e-05
1.8319e-07
1.72417e-05
2.92243e-07
1.72546e-05
3.96066e-07
1.72625e-05
4.93526e-07
1.72619e-05
5.81097e-07
1.72479e-05
6.54894e-07
1.7214e-05
7.11414e-07
1.71487e-05
7.43509e-07
1.70425e-05
7.44837e-07
1.69011e-05
7.12954e-07
1.66961e-05
6.4331e-07
1.64506e-05
5.452e-07
1.61322e-05
4.40339e-07
1.57556e-05
3.37491e-07
1.53554e-05
2.61271e-07
1.49476e-05
2.0295e-07
1.45452e-05
1.73095e-07
1.41608e-05
1.61361e-07
1.37982e-05
1.75761e-07
1.34583e-05
2.15595e-07
1.31398e-05
2.90098e-07
1.28413e-05
4.00184e-07
1.25634e-05
5.6289e-07
1.23111e-05
7.85679e-07
1.20991e-05
1.09518e-06
1.19602e-05
1.50373e-06
1.19049e-05
2.04511e-06
1.21359e-05
2.67488e-06
1.28708e-05
3.46282e-06
1.44158e-05
4.22881e-06
1.71513e-05
4.98851e-06
2.1248e-05
5.43568e-06
2.55016e-05
5.43788e-06
2.82575e-05
4.74844e-06
2.95928e-05
3.94785e-06
3.0138e-05
3.10421e-06
3.03456e-05
2.43664e-06
3.04063e-05
1.86407e-06
3.04125e-05
1.43067e-06
3.0394e-05
1.077e-06
3.03687e-05
8.1525e-07
3.03415e-05
6.09828e-07
3.03166e-05
4.58356e-07
3.02948e-05
3.43615e-07
3.02773e-05
2.55448e-07
3.02636e-05
1.92091e-07
3.02539e-05
1.38023e-07
3.02475e-05
1.08195e-07
6.27765e-08
2.15516e-05
5.60968e-08
2.15721e-05
1.56789e-07
2.1602e-05
2.55686e-07
2.16369e-05
3.52625e-07
2.16738e-05
4.44769e-07
2.171e-05
5.27122e-07
2.17418e-05
5.95111e-07
2.17652e-05
6.43015e-07
2.17834e-05
6.68012e-07
2.17691e-05
6.64436e-07
2.17013e-05
6.30307e-07
2.15512e-05
5.66424e-07
2.12935e-05
4.83261e-07
2.09276e-05
3.89969e-07
2.05122e-05
3.16534e-07
2.0036e-05
2.69895e-07
1.95178e-05
2.50972e-07
1.89838e-05
2.57879e-07
1.84664e-05
2.84677e-07
1.79662e-05
3.35701e-07
1.74945e-05
4.10504e-07
1.70564e-05
5.26214e-07
1.6665e-05
6.78162e-07
1.63271e-05
8.975e-07
1.60762e-05
1.17218e-06
1.59533e-05
1.54952e-06
1.5987e-05
1.99167e-06
1.63508e-05
2.57367e-06
1.73191e-05
3.20242e-06
1.91291e-05
3.88302e-06
2.20418e-05
4.47903e-06
2.60475e-05
4.99089e-06
3.05148e-05
5.20041e-06
3.38749e-05
4.82337e-06
3.58252e-05
4.15347e-06
3.68745e-05
3.45963e-06
3.73985e-05
2.78096e-06
3.76754e-05
2.22008e-06
3.78203e-05
1.73058e-06
3.78989e-05
1.34791e-06
3.79374e-05
1.03002e-06
3.79546e-05
7.88381e-07
3.79585e-05
5.96401e-07
3.79562e-05
4.5155e-07
3.79507e-05
3.40604e-07
3.79449e-05
2.53737e-07
3.79397e-05
1.90939e-07
3.79359e-05
1.36997e-07
3.79348e-05
1.0621e-07
6.12571e-08
2.69942e-05
4.2084e-08
2.70208e-05
1.23236e-07
2.70618e-05
2.07206e-07
2.7114e-05
2.91871e-07
2.71759e-05
3.72316e-07
2.72505e-05
4.43128e-07
2.73328e-05
4.98378e-07
2.7418e-05
5.33537e-07
2.74988e-05
5.46129e-07
2.75595e-05
5.34954e-07
2.75753e-05
5.02719e-07
2.75136e-05
4.54927e-07
2.73503e-05
4.07e-07
2.7048e-05
3.63667e-07
2.65999e-05
3.52028e-07
2.60452e-05
3.62087e-07
2.54678e-05
3.98385e-07
2.48713e-05
4.45935e-07
2.42793e-05
5.15979e-07
2.37181e-05
6.05835e-07
2.32272e-05
7.25915e-07
2.2818e-05
8.76312e-07
2.25082e-05
1.07295e-06
2.234e-05
1.33055e-06
2.23669e-05
1.64512e-06
2.26352e-05
2.01032e-06
2.33561e-05
2.43915e-06
2.46714e-05
2.95797e-06
2.67678e-05
3.49025e-06
2.97499e-05
3.89667e-06
3.37683e-05
4.295e-06
3.78545e-05
4.371e-06
4.11787e-05
4.31176e-06
4.35137e-05
3.85245e-06
4.49781e-05
3.32746e-06
4.58924e-05
2.80173e-06
4.64604e-05
2.2998e-06
4.68355e-05
1.86541e-06
4.70822e-05
1.48104e-06
4.72509e-05
1.16873e-06
4.73623e-05
9.06149e-07
4.74368e-05
7.00984e-07
4.74843e-05
5.36361e-07
4.75144e-05
4.09567e-07
4.75328e-05
3.11188e-07
4.75444e-05
2.32333e-07
4.75521e-05
1.75098e-07
4.75575e-05
1.25448e-07
4.75636e-05
9.61007e-08
5.5159e-08
3.38266e-05
2.6592e-08
3.38576e-05
8.41489e-08
3.39087e-05
1.48536e-07
3.39784e-05
2.15056e-07
3.40664e-05
2.7727e-07
3.41724e-05
3.29546e-07
3.42949e-05
3.66359e-07
3.44298e-05
3.84728e-07
3.45693e-05
3.84265e-07
3.47002e-05
3.67461e-07
3.48082e-05
3.42675e-07
3.48578e-05
3.19444e-07
3.48162e-05
3.17338e-07
3.46492e-05
3.47418e-07
3.43472e-05
4.20319e-07
3.39212e-05
5.19098e-07
3.34235e-05
6.25514e-07
3.29192e-05
7.14211e-07
3.24506e-05
8.15732e-07
3.20606e-05
9.28244e-07
3.17869e-05
1.06072e-06
3.16716e-05
1.21257e-06
3.17894e-05
1.41549e-06
3.21548e-05
1.64672e-06
3.28027e-05
1.91343e-06
3.3947e-05
2.19395e-06
3.58149e-05
2.51433e-06
3.83437e-05
2.80398e-06
4.1427e-05
3.08991e-06
4.4805e-05
3.20779e-06
4.81143e-05
3.30343e-06
5.09965e-05
3.16782e-06
5.3343e-05
2.98618e-06
5.50511e-05
2.66869e-06
5.62732e-05
2.3353e-06
5.7166e-05
1.99252e-06
5.78207e-05
1.66512e-06
5.83103e-05
1.37086e-06
5.86725e-05
1.10515e-06
5.89413e-05
8.83428e-07
5.91365e-05
6.93862e-07
5.92782e-05
5.42261e-07
5.93788e-05
4.19387e-07
5.94499e-05
3.2301e-07
5.94997e-05
2.47103e-07
5.95345e-05
1.85013e-07
5.95592e-05
1.39851e-07
5.95766e-05
1.00143e-07
5.95909e-05
7.67031e-08
4.4075e-08
4.24064e-05
1.0056e-08
4.24395e-05
4.04875e-08
4.24994e-05
7.86077e-08
4.25854e-05
1.1977e-07
4.26976e-05
1.56782e-07
4.28352e-05
1.84822e-07
4.29971e-05
1.98628e-07
4.31821e-05
1.97081e-07
4.33826e-05
1.81524e-07
4.35872e-05
1.5946e-07
4.37815e-05
1.4126e-07
4.39467e-05
1.39307e-07
4.40664e-05
1.71518e-07
4.41192e-05
2.56376e-07
4.4099e-05
3.95143e-07
4.40113e-05
5.66832e-07
4.3915e-05
7.08929e-07
4.38842e-05
7.88902e-07
4.39639e-05
8.67041e-07
4.41846e-05
9.56192e-07
4.45965e-05
1.04679e-06
4.5236e-05
1.15156e-06
4.61168e-05
1.27622e-06
4.73141e-05
1.39347e-06
4.89448e-05
1.51605e-06
5.09647e-05
1.62986e-06
5.33218e-05
1.73613e-06
5.59298e-05
1.7861e-06
5.86612e-05
1.81366e-06
6.12809e-05
1.77263e-06
6.37135e-05
1.72187e-06
6.57966e-05
1.61385e-06
6.75597e-05
1.50566e-06
6.90072e-05
1.34781e-06
7.01962e-05
1.18918e-06
7.11614e-05
1.03062e-06
7.19379e-05
8.75167e-07
7.25572e-05
7.31666e-07
7.30422e-05
5.98065e-07
7.34198e-05
4.83114e-07
7.37082e-05
3.82919e-07
7.39269e-05
3.01559e-07
7.40896e-05
2.35454e-07
7.42094e-05
1.83123e-07
7.4297e-05
1.41216e-07
7.43589e-05
1.06992e-07
7.44035e-05
8.17297e-08
7.44342e-05
5.93206e-08
7.44579e-05
4.65905e-08
2.68203e-08
5.31767e-05
5.32033e-05
5.32681e-05
5.33744e-05
5.35185e-05
5.36924e-05
5.38838e-05
5.40773e-05
5.42587e-05
5.44223e-05
5.45728e-05
5.47266e-05
5.49181e-05
5.52013e-05
5.56339e-05
5.62558e-05
5.7047e-05
5.79553e-05
5.89868e-05
6.01631e-05
6.14911e-05
6.29871e-05
6.46673e-05
6.65198e-05
6.8528e-05
7.06488e-05
7.28402e-05
7.50139e-05
7.71267e-05
7.91069e-05
8.09551e-05
8.26316e-05
8.41569e-05
8.55001e-05
8.66716e-05
8.76766e-05
8.85231e-05
8.92254e-05
8.9794e-05
9.02478e-05
9.06018e-05
9.08751e-05
9.10834e-05
9.1241e-05
9.13588e-05
9.14453e-05
9.15099e-05
9.15563e-05
9.15948e-05
)
;

boundaryField
{
    AXIS
    {
        type            empty;
        value           nonuniform 0();
    }
    OUTLET
    {
        type            calculated;
        value           nonuniform List<scalar> 
25
(
1.79232e-07
5.37313e-07