/*--------------------------------*- C++ -*----------------------------------*\
| =========                 |                                                 |
| \\      /  F ield         | OpenFOAM: The Open Source CFD Toolbox           |
|  \\    /   O peration     | Version:  2.4.x                                 |
|   \\  /    A nd           | Web:      www.OpenFOAM.org                      |
|    \\/     M anipulation  |                                                 |
\*---------------------------------------------------------------------------*/
FoamFile
{
    version     2.0;
    format      ascii;
    class       volScalarField;
    location    "0.05";
    object      rho;
}
// * * * * * * * * * * * * * * * * * * * * * * * * * * * * * * * * * * * * * //

dimensions      [1 -3 0 0 0 0 0];

internalField   nonuniform List<scalar> 
1250
(
1.00236
0.892484
0.800488
0.72896
0.670794
0.623073
0.583083
0.548996
0.518195
0.485932
0.457292
0.432407
0.409573
0.388723
0.369954
0.352532
0.337177
0.323853
0.311566
0.300095
0.289384
0.27933
0.269899
0.262001
0.253737
0.245643
0.238362
0.231267
0.224737
0.220897
0.216712
0.210641
0.206607
0.233999
0.32516
0.510536
0.842508
1.08409
1.15836
1.17549
1.17923
1.18002
1.18017
1.18021
1.18022
1.18022
1.18023
1.18024
1.18024
1.18025
0.994883
0.875738
0.783816
0.713573
0.6574
0.611894
0.574058
0.541866
0.508328
0.477109
0.449568
0.425601
0.403495
0.38348
0.365256
0.348335
0.333514
0.320609
0.308622
0.297445
0.286961
0.27713
0.267915
0.260196
0.252538
0.244549
0.2374
0.230396
0.224021
0.220199
0.216123
0.210162
0.206655
0.234649
0.326048
0.512028
0.843867
1.08461
1.15848
1.17551
1.17923
1.18002
1.18017
1.18021
1.18022
1.18022
1.18023
1.18024
1.18024
1.18025
0.97229
0.831915
0.742182
0.6768
0.626904
0.588118
0.553221
0.518159
0.48648
0.457998
0.432861
0.410846
0.390638
0.372196
0.355094
0.33935
0.325681
0.3136
0.302306
0.291718
0.281747
0.272414
0.263656
0.256339
0.249624
0.242174
0.235279
0.2285
0.22243
0.218633
0.214831
0.209163
0.206883
0.236284
0.328279
0.51601
0.847672
1.08605
1.15879
1.17557
1.17925
1.18002
1.18018
1.18021
1.18022
1.18022
1.18023
1.18024
1.18024
1.18025
0.909663
0.747199
0.66939
0.620691
0.581699
0.54417
0.511226
0.48193
0.455026
0.430475
0.409001
0.390035
0.372332
0.355879
0.340654
0.326596
0.314488
0.303541
0.293189
0.283432
0.27427
0.265663
0.257612
0.250854
0.244637
0.238724
0.232179
0.225776
0.220104
0.216415
0.212962
0.207798
0.207579
0.238971
0.331888
0.522795
0.854187
1.08849
1.15931
1.17567
1.17927
1.18002
1.18018
1.18021
1.18022
1.18022
1.18023
1.18024
1.18024
1.18025
0.725161
0.598419
0.570071
0.53765
0.510031
0.485441
0.461811
0.439276
0.417913
0.397942
0.380864
0.365118
0.350373
0.336593
0.323553
0.311181
0.300854
0.291149
0.281985
0.273308
0.265144
0.257473
0.250234
0.244115
0.238503
0.233181
0.228257
0.222295
0.217158
0.21371
0.210639
0.20631
0.209466
0.24282
0.336799
0.532488
0.863342
1.09186
1.16001
1.17581
1.17929
1.18003
1.18018
1.18021
1.18022
1.18022
1.18023
1.18024
1.18024
1.18025
0.336974
0.428826
0.448409
0.444411
0.433181
0.419775
0.404962
0.389479
0.374827
0.361303
0.34983
0.33849
0.327508
0.315905
0.304839
0.294498
0.285812
0.277524
0.269629
0.262119
0.255075
0.248402
0.242084
0.23659
0.23165
0.226919
0.222564
0.218133
0.213749
0.210603
0.208066
0.204879
0.210807
0.247996
0.342669
0.545455
0.874921
1.09602
1.16088
1.17598
1.17932
1.18003
1.18018
1.18021
1.18022
1.18022
1.18023
1.18024
1.18024
1.18025
0.218177
0.318419
0.360426
0.372394
0.372637
0.365903
0.356868
0.346795
0.336359
0.327012
0.318638
0.310248
0.302062
0.294069
0.286111
0.277765
0.270528
0.263614
0.256976
0.250663
0.244711
0.239033
0.233589
0.228711
0.224453
0.220387
0.216568
0.212758
0.209829
0.207356
0.204607
0.203599
0.21277
0.254317
0.350171
0.561531
0.888571
1.10082
1.16188
1.17617
1.17936
1.18004
1.18018
1.18021
1.18022
1.18022
1.18023
1.18024
1.18024
1.18025
0.188024
0.279607
0.320424
0.331119
0.332798
0.327463
0.320304
0.31255
0.304613
0.298041
0.291852
0.285635
0.279477
0.273441
0.267617
0.262226
0.256261
0.250538
0.245027
0.239753
0.234717
0.229889
0.225277
0.22093
0.217297
0.213894
0.210682
0.207517
0.205222
0.203341
0.201489
0.202833
0.21547
0.261498
0.359724
0.580593
0.904735
1.10603
1.16296
1.17638
1.1794
1.18004
1.18018
1.18021
1.18022
1.18022
1.18023
1.18024
1.18024
1.18025
0.193282
0.287199
0.320207
0.319033
0.311914
0.304859
0.296353
0.288586
0.281462
0.275966
0.270762
0.265707
0.260809
0.256051
0.251424
0.24743
0.2432
0.238466
0.233867
0.229494
0.225305
0.221318
0.21749
0.213854
0.210675
0.207873
0.205218
0.202727
0.201062
0.199778
0.199116
0.203077
0.219064
0.269579
0.371424
0.602847
0.923824
1.11144
1.16408
1.1766
1.17944
1.18005
1.18018
1.18021
1.18022
1.18022
1.18023
1.18024
1.18024
1.18025
0.264867
0.368591
0.374524
0.338663
0.314648
0.297823
0.285456
0.275201
0.266665
0.25937
0.25322
0.247863
0.24307
0.238767
0.235125
0.232912
0.230486
0.22689
0.223227
0.219759
0.2164
0.213282
0.210325
0.207522
0.20492
0.202642
0.200509
0.198683
0.197583
0.197001
0.197802
0.205338
0.223693
0.278656
0.385316
0.62758
0.943448
1.11683
1.16519
1.17681
1.17948
1.18006
1.18018
1.18021
1.18022
1.18022
1.18023
1.18024
1.18024
1.18025
0.762794
0.59428
0.500723
0.407433
0.34709
0.31216
0.289603
0.273538
0.262794
0.253856
0.245476
0.238471
0.232692
0.227652
0.223891
0.221693
0.219566
0.216765
0.21406
0.21149
0.209017
0.206679
0.204424
0.202272
0.200261
0.198441
0.1968
0.195596
0.19503
0.195201
0.197786
0.207527
0.229859
0.288867
0.402013
0.654964
0.963476
1.12216
1.16629
1.17703
1.17952
1.18007
1.18018
1.18021
1.18022
1.18022
1.18023
1.18024
1.18024
1.18025
1.02414
0.824853
0.690042
0.550168
0.436859
0.363347
0.317727
0.290365
0.271197
0.257344
0.24732
0.239057
0.232389
0.226837
0.22257
0.217926
0.214131
0.211123
0.208484
0.206158
0.204016
0.202049
0.200233
0.198538
0.196954
0.195542
0.194378
0.193764
0.193732
0.194975
0.19995
0.211376
0.23842
0.301194
0.423515
0.688102
0.985011
1.12776
1.16745
1.17726
1.17956
1.18007
1.18018
1.18021
1.18022
1.18022
1.18023
1.18024
1.18024
1.18025
1.11301
0.976427
0.86175
0.734202
0.600633
0.484588
0.397929
0.340623
0.303747
0.279271
0.261727
0.248135
0.237974
0.230084
0.223747
0.21862
0.214403
0.210897
0.207907
0.205306
0.203026
0.201004
0.199208
0.197615
0.196198
0.195
0.194187
0.19408
0.194765
0.197225
0.203771
0.217611
0.250346
0.316857
0.452752
0.72838
1.00901
1.1339
1.16875
1.17753
1.17961
1.18008
1.18019
1.18021
1.18022
1.18022
1.18023
1.18024
1.18024
1.18025
1.14425
1.06001
0.972929
0.881144
0.775361
0.663641
0.554883
0.460978
0.389464
0.337343
0.301572
0.276223
0.258117
0.244785
0.234541
0.226762
0.220759
0.215951
0.212073
0.208884
0.206223
0.204016
0.202113
0.200485
0.199131
0.198051
0.197527
0.197752
0.199127
0.202733
0.210738
0.227948
0.266659
0.339301
0.493775
0.779013
1.03535
1.14057
1.17021
1.17784
1.17967
1.18009
1.18019
1.18021
1.18022
1.18022
1.18023
1.18024
1.18024
1.18025
1.15765
1.10318
1.04294
0.974641
0.900722
0.817801
0.728861
0.635817
0.54522
0.464215
0.398284
0.348604
0.31268
0.286194
0.267081
0.253137
0.242672
0.234625
0.228131
0.222863
0.218628
0.215225
0.212348
0.209995
0.208043
0.206569
0.205722
0.206145
0.208251
0.212794
0.222285
0.244481
0.289272
0.372562
0.55188
0.83956
1.06306
1.14765
1.17184
1.17819
1.17974
1.18011
1.18019
1.18021
1.18022
1.18022
1.18023
1.18024
1.18024
1.18025
1.16468
1.12741
1.08498
1.03687
0.981801
0.920089
0.855494
0.782044
0.706264
0.628066
0.552034
0.480953
0.419919
0.371547
0.335458
0.308919
0.289137
0.274013
0.262272
0.252918
0.245304
0.239036
0.23379
0.229378
0.22575
0.222914
0.221112
0.221113
0.223741
0.229159
0.240857
0.268808
0.322046
0.423432
0.632339
0.906982
1.0907
1.15483
1.17356
1.17857
1.17982
1.18012
1.18019
1.18021
1.18022
1.18022
1.18023
1.18024
1.18024
1.18025
1.16899
1.14243
1.1118
1.07689
1.03705
0.991437
0.939094
0.883861
0.824817
0.760647
0.695171
0.62706
0.559911
0.498055
0.445244
0.402628
0.368684
0.341972
0.320613
0.303313
0.289183
0.277467
0.267758
0.259658
0.253036
0.247965
0.244806
0.244323
0.247294
0.253724
0.269543
0.306248
0.372739
0.502265
0.736634
0.983837
1.11635
1.16169
1.17526
1.17896
1.17991
1.18014
1.1802
1.18021
1.18022
1.18022
1.18023
1.18024
1.18024
1.18025
1.17194
1.15259
1.13015
1.1044
1.07489
1.04103
1.00202
0.95834
0.908711
0.85879
0.803174
0.742234
0.680872
0.620064
0.562821
0.511513
0.467346
0.430003
0.398674
0.372377
0.350337
0.331901
0.316371
0.303401
0.292961
0.285058
0.280153
0.27935
0.283143
0.292364
0.316398
0.365673
0.454132
0.620838
0.85792
1.0517
1.13811
1.16778
1.1768
1.17932
1.17999
1.18016
1.1802
1.18021
1.18022
1.18022
1.18023
1.18024
1.18024
1.18025
1.17411
1.15996
1.14348
1.12443
1.1025
1.07772
1.0493
1.01651
0.978477
0.934212
0.884057
0.834558
0.781074
0.72383
0.667282
0.613345
0.56436
0.520924
0.482961
0.450216
0.422174
0.398212
0.3779
0.361055
0.34769
0.337885
0.33235
0.332445
0.338586
0.354907
0.393203
0.461944
0.583953
0.776936
0.980023
1.10438
1.15511
1.17264
1.17807
1.17964
1.18006
1.18017
1.1802
1.18021
1.18022
1.18022
1.18023
1.18024
1.18024
1.18025
1.17582
1.16569
1.15389
1.14021
1.12444
1.10624
1.08518
1.06062
1.03176
0.99756
0.959385
0.914705
0.866129
0.815551
0.761859
0.708867
0.659065
0.613417
0.572506
0.536382
0.50497
0.477934
0.455201
0.436655
0.422555
0.413276
0.410024
0.413716
0.426465
0.458487
0.51716
0.614815
0.764074
0.939085
1.07427
1.14057
1.16691
1.17609
1.17902
1.17988
1.18012
1.18019
1.18021
1.18021
1.18022
1.18022
1.18023
1.18024
1.18024
1.18025
1.1772
1.17024
1.16204
1.15243
1.14121
1.12813
1.11286
1.0949
1.07465
1.05077
1.02217
0.987746
0.946817
0.899562
0.851486
0.803867
0.756989
0.712631
0.672265
0.63629
0.604831
0.578004
0.555948
0.538972
0.527706
0.52312
0.526226
0.538404
0.567938
0.619561
0.701079
0.816348
0.951385
1.06662
1.13223
1.16223
1.17407
1.17826
1.17963
1.18004
1.18016
1.1802
1.18021
1.18022
1.18022
1.18022
1.18023
1.18023
1.18024
1.18025
1.17827
1.17376
1.16831
1.1618
1.15409
1.14523
1.13499
1.1231
1.10916
1.09259
1.07262
1.0483
1.01912
0.985043
0.945868
0.903286
0.862148
0.823862
0.788109
0.755878
0.727866
0.705317
0.688181
0.677108
0.673291
0.676789
0.690071
0.718755
0.764804
0.830092
0.913862
1.00956
1.08717
1.13644
1.162
1.17335
1.17783
1.17943
1.17997
1.18013
1.18019
1.1802
1.18021
1.18022
1.18022
1.18022
1.18023
1.18023
1.18024
1.18025
1.17914
1.17654
1.17325
1.16922
1.16441
1.15876
1.15219
1.14457
1.13568
1.12521
1.11285
1.09826
1.08053
1.05919
1.0342
1.00611
0.976262
0.946505
0.918347
0.893057
0.872909
0.858209
0.849026
0.847132
0.850988
0.863831
0.887947
0.9262
0.974726
1.02894
1.08077
1.12259
1.1508
1.16684
1.17471
1.17813
1.17947
1.17996
1.18013
1.18018
1.1802
1.18021
1.18021
1.18022
1.18022
1.18022
1.18023
1.18023
1.18024
1.18025
1.17982
1.1787
1.17699
1.17478
1.1721
1.16894
1.16526
1.16105
1.15635
1.15097
1.14474
1.13741
1.12862
1.11811
1.10576
1.09179
1.07678
1.06171
1.04765
1.03558
1.02646
1.02117
1.02013
1.02298
1.03227
1.04811
1.06884
1.09251
1.11657
1.13813
1.1551
1.16675
1.1737
1.17735
1.17905
1.17976
1.18004
1.18015
1.18018
1.1802
1.1802
1.18021
1.18021
1.18022
1.18022
1.18022
1.18023
1.18023
1.18024
1.18025
1.18014
1.17989
1.17941
1.17871
1.17779
1.17668
1.17542
1.17411
1.17263
1.17098
1.16916
1.16712
1.16476
1.16203
1.15888
1.1554
1.1518
1.14835
1.14535
1.14312
1.14191
1.14195
1.14335
1.1462
1.15043
1.15558
1.16109
1.16636
1.1709
1.17442
1.17689
1.17846
1.17934
1.17979
1.18003
1.18014
1.18018
1.18019
1.1802
1.1802
1.1802
1.18021
1.18021
1.18022
1.18022
1.18022
1.18023
1.18023
1.18024
1.18025
)
;

boundaryField
{
    AXIS
    {
        type            empty;
    }
    OUTLET
    {
        type            calculated;
        value           uniform 1.18025;
    }
    COFLOW
    {
        type            calculated;
        value           nonuniform List<scalar> 
15
(
1.18018
1.18018
1.18017
1.18016
1.18016
1.18016
1.18016
1.18016
1.18015
1.18015
1.18015
1.18015
1.18015
1.18015
1.18015
)
;
    }
    PILOT
    {
        type            calculated;
        value           nonuniform List<scalar> 5(0.156758 0.156761 0.156775 0.15678 0.156783);
    }
    FUEL
    {
        type            calculated;
        value           nonuniform List<scalar> 5(1.0507 1.05067 1.0508 1.05118 1.05141);
    }
    WALL
    {
        type            calculated;
        value           nonuniform List<scalar> 
50
(
1.18014
1.17989
1.17941
1.17871
1.17779
1.17668
1.17542
1.17411
1.17263
1.17098
1.16916
1.16712
1.16476
1.16203
1.15888
1.1554
1.1518
1.14835
1.14535
1.14312
1.14191
1.14195
1.14335
1.1462
1.15043
1.15558
1.16109
1.16636
1.1709
1.17442
1.17689
1.17846
1.17934
1.17979
1.18003
1.18014
1.18018
1.18019
1.1802
1.1802
1.1802
1.18021
1.18021
1.18022
1.18022
1.18022
1.18023
1.18023
1.18024
1.18025
)
;
    }
    front
    {
        type            wedge;
    }
    back
    {
        type            wedge;
    }
}


// ************************************************************************* //
