/*--------------------------------*- C++ -*----------------------------------*\
| =========                 |                                                 |
| \\      /  F ield         | OpenFOAM: The Open Source CFD Toolbox           |
|  \\    /   O peration     | Version:  2.4.x                                 |
|   \\  /    A nd           | Web:      www.OpenFOAM.org                      |
|    \\/     M anipulation  |                                                 |
\*---------------------------------------------------------------------------*/
FoamFile
{
    version     2.0;
    format      ascii;
    class       volScalarField;
    location    "0.05";
    object      T;
}
// * * * * * * * * * * * * * * * * * * * * * * * * * * * * * * * * * * * * * //

dimensions      [0 0 0 1 0 0 0];

internalField   nonuniform List<scalar> 
1250
(
308.114
345.562
385.204
423.082
459.98
495.541
529.988
563.439
597.479
637.345
677.444
716.646
756.787
797.552
838.187
879.747
919.924
957.861
995.725
1033.86
1072.23
1110.94
1149.92
1184.86
1223.26
1263.27
1301.69
1341.51
1380.48
1405.65
1437.11
1492.27
1553.02
1407.71
1037.08
671.271
410.368
319.815
299.494
295.169
294.241
294.048
294.009
294.002
294
294
294
294
294
294
310.404
352.148
393.394
432.255
469.475
504.817
538.64
571.273
609.28
649.351
689.323
728.361
768.454
808.745
849.268
890.652
930.343
967.883
1005.56
1043.42
1081.64
1120.13
1158.82
1193.48
1229.7
1269.56
1307.62
1347.25
1385.59
1410.8
1441.8
1496.45
1553.5
1404.24
1034.41
669.362
409.715
319.662
299.464
295.163
294.24
294.047
294.009
294.002
294
294
294
294
294
294
317.602
370.618
415.489
455.958
492.782
525.968
559.791
598
637.203
677.042
716.556
755.174
794.436
833.982
874.292
914.974
953.475
990.284
1027.35
1064.71
1102.48
1140.38
1178.43
1212.36
1245.3
1283.44
1320.86
1359.91
1397.04
1422.43
1452.22
1505.4
1553.73
1395.55
1027.77
664.322
407.9
319.242
299.385
295.148
294.237
294.047
294.009
294.002
294
294
294
294
294
294
339.4
412.497
460.972
498.103
532.438
569.7
606.861
644.095
682.422
721.509
759.572
796.713
834.756
873.479
912.618
951.997
988.693
1024.39
1060.61
1097.17
1133.9
1170.76
1207.52
1240.34
1272.21
1304.19
1340.74
1378.64
1414.21
1439.45
1467.68
1518.1
1551.56
1381.46
1017.22
655.906
404.828
318.534
299.252
295.123
294.232
294.046
294.009
294.002
294
294
294
294
294
294
425.006
515.354
543.358
577.351
609.488
640.955
674.132
708.932
745.249
782.649
817.831
853.187
889.176
925.67
962.973
1001.15
1035.47
1069.95
1104.71
1139.78
1174.93
1210.03
1245.2
1276.71
1307.11
1337.43
1366.84
1403.41
1436.68
1461.05
1487.59
1532.8
1540.87
1361.65
1003.19
644.243
400.589
317.561
299.071
295.088
294.226
294.045
294.009
294.002
294
294
294
294
294
294
920.32
726.429
696.375
703.413
722.014
745.147
772.311
802.831
834.105
865.325
893.809
923.772
954.715
989.483
1025.06
1060.74
1092.79
1125.26
1158.08
1191.17
1224.06
1257
1289.97
1320.19
1348.72
1377.36
1404.87
1434.13
1463.78
1486.95
1510.73
1548.13
1535.26
1335.74
986.899
629.267
395.353
316.366
298.849
295.046
294.218
294.044
294.008
294.002
294
294
294
294
294
294
1464.81
995.654
878.044
848.635
847.104
861.712
882.591
907.383
934.785
960.886
985.646
1011.88
1038.95
1066.88
1096.22
1128.57
1158.34
1188.37
1218.77
1249.25
1279.55
1309.95
1340.59
1369.42
1395.79
1422.06
1447.71
1474.42
1496.01
1515.55
1541.13
1563.51
1525.83
1305.33
966.794
611.634
389.353
315.001
298.595
294.998
294.209
294.042
294.008
294.002
294
294
294
294
294
294
1739.26
1157.97
1005.06
968.057
959.731
972.561
991.89
1014.48
1039.2
1060.77
1082.13
1104.71
1128.23
1152.44
1176.93
1200.73
1227.95
1255.36
1283.07
1310.88
1338.73
1366.72
1394.74
1422.38
1446.54
1470.07
1493.06
1516.68
1534.67
1550.84
1570.8
1576.08
1511.75
1272.45
942.282
591.962
382.48
313.53
298.32
294.946
294.199
294.04
294.008
294.001
294
294
294
294
294
294
1711.96
1152.73
1026.02
1021.55
1038.2
1057.09
1083.12
1108.74
1133.84
1154.1
1174.31
1194.96
1215.97
1237.34
1259.07
1278.66
1300.1
1324.91
1350.17
1375.26
1400.39
1425.37
1450.41
1475.21
1497.81
1518.49
1538.72
1558.52
1572.45
1584.76
1596.28
1581.63
1492.2
1237.34
913.84
570.53
374.668
312.018
298.035
294.892
294.189
294.039
294.008
294.001
294
294
294
294
294
294
1272.12
917.494
895.855
979.706
1045.1
1096.45
1137.66
1174.78
1208.02
1238.24
1264.98
1289.42
1312.23
1333.57
1352.56
1364.56
1378.28
1398.95
1420.9
1442.5
1464.34
1485.5
1506.38
1526.94
1546.73
1564.54
1581.75
1597.18
1607.07
1614.25
1614.37
1571.51
1466.67
1200
882.164
548.457
366.962
310.528
297.754
294.839
294.179
294.037
294.007
294.001
294
294
294
294
294
294
452.743
577.689
680.924
828.707
963.213
1061.52
1136.19
1196.01
1239.29
1278.14
1317.7
1352.51
1382.58
1410.08
1431.2
1443.47
1455.9
1473
1490.29
1507.38
1524.51
1541.28
1558.1
1574.71
1590.78
1605.7
1619.6
1630.36
1636.05
1637.19
1622.96
1562.34
1432.74
1160.53
846.822
525.924
359.418
309.066
297.476
294.785
294.169
294.035
294.007
294.001
294
294
294
294
294
294
338.324
418.741
498.574
621.763
777.086
926.699
1051.73
1142.47
1216.3
1275.66
1322.1
1363.13
1398.16
1428.85
1453.23
1481.68
1505.24
1524.26
1541.58
1557.45
1572.65
1587.16
1601.04
1614.46
1627.43
1639.27
1649.43
1655.24
1656.44
1648.65
1614.69
1541.88
1387.05
1116.12
805.212
501.009
351.645
307.546
297.183
294.727
294.159
294.033
294.007
294.001
294
294
294
294
294
294
311.555
354.56
400.939
469.237
571.227
704.307
852.108
988.803
1102.06
1191.82
1265.57
1329.2
1380.88
1423.61
1459.83
1490.49
1516.68
1539.22
1559.11
1577.01
1593.24
1608.15
1621.81
1634.32
1645.75
1655.64
1662.6
1663.81
1658.86
1640.81
1594.67
1506.44
1327.16
1064.09
754.718
473.725
343.37
305.897
296.854
294.661
294.146
294.031
294.006
294.001
294
294
294
294
294
294
303.128
326.927
355.784
392.281
444.916
518.407
617.78
740.286
871.795
1000.87
1113.62
1209.84
1289.1
1354.19
1408.66
1452.87
1488.78
1518.8
1543.92
1565.24
1583.59
1599.23
1613.07
1625.2
1635.46
1643.71
1647.64
1645.74
1635.04
1608.26
1552.99
1447.43
1252.39
997.054
693.607
443.366
334.722
304.123
296.487
294.585
294.131
294.028
294.006
294.001
294
294
294
294
294
294
299.656
314.282
332.209
355.189
383.938
422.3
473.011
540.993
629.032
736.112
854.382
971.881
1078.99
1173.99
1253.41
1318.27
1371.36
1415.03
1452.28
1483.93
1510.35
1532.23
1551.25
1567.09
1580.41
1590.44
1595.95
1592.21
1576.52
1544.7
1483.75
1359.16
1160.78
911.565
622.16
411.802
326.082
302.264
296.08
294.498
294.114
294.025
294.005
294.001
294
294
294
294
294
294
297.865
307.604
319.498
334.146
352.663
376.022
404.044
441.466
488.122
547.875
621.87
711.728
812.476
915.052
1010.07
1093.44
1164.98
1226.17
1278.17
1322.75
1361.31
1394.68
1423.8
1449.13
1470.47
1487.36
1497.93
1497.03
1479.7
1446.28
1380.38
1245.01
1048.58
805.545
544.431
381.55
317.896
300.401
295.649
294.404
294.094
294.021
294.005
294.001
294
294
294
294
294
294
296.779
303.607
311.88
321.882
334.109
349.31
368.557
391.316
418.979
453.846
495.965
548.969
613.621
688.277
768.017
847.156
922.831
992.511
1056.2
1114.02
1166.07
1212.97
1254.69
1291.62
1323.31
1348.43
1364.24
1366.03
1349.77
1316.89
1243.34
1100.82
911.489
682.24
468.506
352.063
310.66
298.644
295.225
294.307
294.073
294.017
294.004
294.001
294
294
294
294
294
294
296.041
300.961
306.874
313.958
322.487
332.869
345.692
361.28
380.789
402.666
430.206
465.064
506.385
555.247
610.705
670.749
732.75
794.847
855.644
914.304
969.984
1021.98
1070.23
1114.07
1151.92
1182.18
1201.55
1204.34
1188.43
1152.25
1067.95
928.834
752.757
554.366
403.104
329.57
304.775
297.098
294.841
294.216
294.053
294.012
294.003
294.001
294
294
294
294
294
294
295.499
299.07
303.338
308.429
314.503
321.665
330.291
340.837
353.95
370.545
391.337
414.277
442.276
476.765
516.565
561.254
609.113
658.931
709.647
760.091
809.334
856.728
901.43
942.148
977.094
1004.34
1020.28
1019.74
1001.63
956.892
866.269
740.517
588.761
444.557
353.421
313.997
300.327
295.879
294.525
294.139
294.035
294.008
294.002
294
294
294
294
294
294
294
295.073
297.614
300.631
304.202
308.429
313.456
319.484
326.812
335.867
347.271
360.942
378.374
399.344
423.804
453.278
486.687
522.915
561.202
600.617
640.318
679.362
716.973
751.963
783.117
808.556
826.183
832.484
825.171
801.051
746.307
663.338
559.795
451.953
368.662
322.715
304.123
297.318
295.016
294.292
294.079
294.02
294.005
294.001
294
294
294
294
294
294
294
294.732
296.468
298.542
301.01
303.943
307.435
311.617
316.681
322.594
329.852
338.99
350.68
365.674
384.662
406.123
429.878
456.147
484.15
512.801
541.345
569.043
595.003
618.18
637.281
650.616
656.192
652.375
637.884
605.297
555.689
492.006
423.403
363.953
325.008
306.34
298.502
295.519
294.477
294.141
294.039
294.01
294.003
294.001
294
294
294
294
294
294
294
294.465
295.588
296.954
298.604
300.582
302.887
305.595
308.801
312.647
317.342
323.194
330.619
339.989
351.619
366.016
383.067
401.127
419.545
438.344
456.8
474.155
489.104
501.11
509.185
512.029
509.421
499.757
480.089
451.566
416.483
378.729
343.191
318.92
305.215
298.562
295.698
294.584
294.188
294.057
294.016
294.004
294.001
294
294
294
294
294
294
294
294
294.249
294.894
295.714
296.724
297.941
299.381
301.073
303.06
305.41
308.225
311.615
315.714
320.841
327.239
335.062
344.319
354.73
365.759
376.849
387.402
396.248
402.968
407.288
408.19
406.363
400.394
389.644
373.731
355.321
336.787
320.786
308.944
301.441
297.332
295.358
294.509
294.177
294.058
294.018
294.005
294.001
294
294
294
294
294
294
294
294
294
294.081
294.359
294.784
295.332
296.001
296.795
297.724
298.795
299.999
301.387
303.01
304.945
307.295
310.156
313.586
317.559
321.94
326.463
330.803
334.62
337.567
339.302
339.648
338.716
335.701
330.682
324.329
317.369
310.594
304.763
300.326
297.353
295.608
294.702
294.282
294.104
294.036
294.012
294.004
294.001
294
294
294
294
294
294
294
294
294
294
294.003
294.066
294.183
294.357
294.584
294.861
295.172
295.499
295.868
296.28
296.737
297.252
297.846
298.54
299.342
300.236
301.166
302.063
302.845
303.433
303.751
303.742
303.373
302.627
301.526
300.196
298.787
297.449
296.307
295.428
294.813
294.425
294.207
294.096
294.038
294.011
294.003
294.001
294
294
294
294
294
294
294
294
294
294
294
294
)
;

boundaryField
{
    AXIS
    {
        type            empty;
    }
    OUTLET
    {
        type            calculated;
        value           uniform 294;
    }
    COFLOW
    {
        type            calculated;
        value           uniform 294;
    }
    PILOT
    {
        type            calculated;
        value           uniform 2102.68;
    }
    FUEL
    {
        type            calculated;
        value           uniform 294;
    }
    WALL
    {
        type            calculated;
        value           nonuniform List<scalar> 
50
(
294.003
294.066
294.183
294.357
294.584
294.861
295.172
295.499
295.868
296.28
296.737
297.252
297.846
298.54
299.342
300.236
301.166
302.063
302.845
303.433
303.751
303.742
303.373
302.627
301.526
300.196
298.787
297.449
296.307
295.428
294.813
294.425
294.207
294.096
294.038
294.011
294.003
294.001
294
294
294
294
294
294
294
294
294
294
294
294
)
;
    }
    front
    {
        type            wedge;
    }
    back
    {
        type            wedge;
    }
}


// ************************************************************************* //
