/*--------------------------------*- C++ -*----------------------------------*\
| =========                 |                                                 |
| \\      /  F ield         | OpenFOAM: The Open Source CFD Toolbox           |
|  \\    /   O peration     | Version:  2.4.x                                 |
|   \\  /    A nd           | Web:      www.OpenFOAM.org                      |
|    \\/     M anipulation  |                                                 |
\*---------------------------------------------------------------------------*/
FoamFile
{
    version     2.0;
    format      ascii;
    class       volScalarField;
    location    "0.05";
    object      thermo:mu;
}
// * * * * * * * * * * * * * * * * * * * * * * * * * * * * * * * * * * * * * //

dimensions      [1 -1 -1 0 0 0 0];

internalField   nonuniform List<scalar> 
1250
(
1.88883e-05
2.0807e-05
2.27418e-05
2.45074e-05
2.61569e-05
2.76869e-05
2.91178e-05
3.04632e-05
3.1791e-05
3.32973e-05
3.47634e-05
3.61531e-05
3.75347e-05
3.88983e-05
4.02206e-05
4.15376e-05
4.27791e-05
4.39245e-05
4.50433e-05
4.61469e-05
4.72349e-05
4.8311e-05
4.93743e-05
5.03106e-05
5.13221e-05
5.23576e-05
5.33352e-05
5.43319e-05
5.52914e-05
5.59033e-05
5.66598e-05
5.79645e-05
5.93709e-05
5.59533e-05
4.62389e-05
3.45407e-05
2.39233e-05
1.94979e-05
1.84331e-05
1.82027e-05
1.81531e-05
1.81427e-05
1.81407e-05
1.81403e-05
1.81402e-05
1.81402e-05
1.81402e-05
1.81402e-05
1.81402e-05
1.81402e-05
1.90084e-05
2.11351e-05
2.31302e-05
2.49237e-05
2.65709e-05
2.80769e-05
2.94699e-05
3.07724e-05
3.22422e-05
3.37412e-05
3.51889e-05
3.65605e-05
3.79289e-05
3.92661e-05
4.05751e-05
4.18776e-05
4.30962e-05
4.4223e-05
4.533e-05
4.64201e-05
4.74984e-05
4.85635e-05
4.96142e-05
5.05392e-05
5.149e-05
5.25188e-05
5.34847e-05
5.44741e-05
5.54162e-05
5.60278e-05
5.67718e-05
5.80622e-05
5.93819e-05
5.58694e-05
4.61626e-05
3.44717e-05
2.38931e-05
1.949e-05
1.84315e-05
1.82024e-05
1.8153e-05
1.81427e-05
1.81407e-05
1.81403e-05
1.81402e-05
1.81402e-05
1.81402e-05
1.81402e-05
1.81402e-05
1.81402e-05
1.93833e-05
2.20408e-05
2.41596e-05
2.59803e-05
2.75701e-05
2.89533e-05
3.03185e-05
3.1811e-05
3.3292e-05
3.47489e-05
3.61499e-05
3.748e-05
3.87954e-05
4.00854e-05
4.13667e-05
4.26278e-05
4.37934e-05
4.4884e-05
4.596e-05
4.70233e-05
4.80777e-05
4.91159e-05
5.01394e-05
5.10366e-05
5.18948e-05
5.28728e-05
5.3817e-05
5.47869e-05
5.56948e-05
5.63081e-05
5.70198e-05
5.8271e-05
5.93872e-05
5.56586e-05
4.59722e-05
3.42888e-05
2.3809e-05
1.94683e-05
1.84273e-05
1.82016e-05
1.81529e-05
1.81427e-05
1.81407e-05
1.81403e-05
1.81402e-05
1.81402e-05
1.81402e-05
1.81402e-05
1.81402e-05
1.81402e-05
2.04976e-05
2.40217e-05
2.62003e-05
2.77949e-05
2.92178e-05
3.07105e-05
3.21501e-05
3.35474e-05
3.49422e-05
3.63226e-05
3.76291e-05
3.88706e-05
4.01103e-05
4.13412e-05
4.25556e-05
4.37491e-05
4.48373e-05
4.5875e-05
4.69075e-05
4.79306e-05
4.89398e-05
4.99344e-05
5.09097e-05
5.17663e-05
5.25865e-05
5.33983e-05
5.43126e-05
5.52465e-05
5.61101e-05
5.67157e-05
5.73862e-05
5.85663e-05
5.93374e-05
5.53153e-05
4.56681e-05
3.39818e-05
2.36662e-05
1.94316e-05
1.84202e-05
1.82002e-05
1.81526e-05
1.81427e-05
1.81407e-05
1.81403e-05
1.81402e-05
1.81402e-05
1.81402e-05
1.81402e-05
1.81402e-05
1.81402e-05
2.45951e-05
2.85158e-05
2.96606e-05
3.10108e-05
3.22501e-05
3.34312e-05
3.46441e-05
3.58829e-05
3.71417e-05
3.84042e-05
3.95626e-05
4.06999e-05
4.18317e-05
4.29542e-05
4.40769e-05
4.52018e-05
4.61929e-05
4.71709e-05
4.81392e-05
4.90997e-05
5.00459e-05
5.09755e-05
5.18922e-05
5.27014e-05
5.34719e-05
5.42305e-05
5.49574e-05
5.58492e-05
5.66495e-05
5.72295e-05
5.78549e-05
5.89061e-05
5.90921e-05
5.48296e-05
4.52611e-05
3.35529e-05
2.34683e-05
1.93812e-05
1.84106e-05
1.81984e-05
1.81523e-05
1.81426e-05
1.81407e-05
1.81403e-05
1.81402e-05
1.81402e-05
1.81402e-05
1.81402e-05
1.81402e-05
1.81402e-05
4.27912e-05
3.64935e-05
3.54397e-05
3.56886e-05
3.63402e-05
3.71382e-05
3.80585e-05
3.90721e-05
4.00893e-05
4.10845e-05
4.19756e-05
4.28964e-05
4.38305e-05
4.48605e-05
4.58942e-05
4.69113e-05
4.7809e-05
4.8704e-05
4.95942e-05
5.04779e-05
5.1343e-05
5.21966e-05
5.30386e-05
5.38002e-05
5.45106e-05
5.52151e-05
5.58846e-05
5.65885e-05
5.7294e-05
5.78398e-05
5.83951e-05
5.92588e-05
5.89628e-05
5.41884e-05
4.47846e-05
3.29961e-05
2.32225e-05
1.93192e-05
1.83988e-05
1.81961e-05
1.81518e-05
1.81425e-05
1.81406e-05
1.81403e-05
1.81402e-05
1.81402e-05
1.81402e-05
1.81402e-05
1.81402e-05
1.81402e-05
5.73184e-05
4.50412e-05
4.14843e-05
4.05549e-05
4.05061e-05
4.09703e-05
4.16265e-05
4.23948e-05
4.32308e-05
4.40148e-05
4.47478e-05
4.55137e-05
4.62924e-05
4.70845e-05
4.79043e-05
4.87945e-05
4.96013e-05
5.04035e-05
5.12046e-05
5.19969e-05
5.27738e-05
5.35432e-05
5.43089e-05
5.50206e-05
5.56643e-05
5.62991e-05
5.69127e-05
5.75451e-05
5.80518e-05
5.85071e-05
5.90981e-05
5.96107e-05
5.87451e-05
5.34271e-05
4.41906e-05
3.23317e-05
2.2939e-05
1.92483e-05
1.83853e-05
1.81936e-05
1.81514e-05
1.81424e-05
1.81406e-05
1.81403e-05
1.81402e-05
1.81402e-05
1.81402e-05
1.81402e-05
1.81402e-05
1.81402e-05
6.35033e-05
4.95913e-05
4.53157e-05
4.42281e-05
4.39803e-05
4.43617e-05
4.4931e-05
4.55889e-05
4.62995e-05
4.69121e-05
4.75121e-05
4.81394e-05
4.87851e-05
4.94422e-05
5.00994e-05
5.07306e-05
5.14445e-05
5.21544e-05
5.28634e-05
5.35667e-05
5.42629e-05
5.49544e-05
5.56389e-05
5.63069e-05
5.68847e-05
5.74426e-05
5.7983e-05
5.85333e-05
5.89493e-05
5.93209e-05
5.97769e-05
5.98967e-05
5.84187e-05
5.25927e-05
4.34572e-05
3.15785e-05
2.26118e-05
1.91717e-05
1.83707e-05
1.81908e-05
1.81508e-05
1.81423e-05
1.81406e-05
1.81403e-05
1.81402e-05
1.81402e-05
1.81402e-05
1.81402e-05
1.81402e-05
1.81402e-05
6.29132e-05
4.94501e-05
4.59217e-05
4.57931e-05
4.62711e-05
4.68082e-05
4.75398e-05
4.82504e-05
4.89381e-05
4.94872e-05
5.00293e-05
5.05783e-05
5.11312e-05
5.16885e-05
5.22499e-05
5.27511e-05
5.32951e-05
5.39184e-05
5.45463e-05
5.51638e-05
5.57761e-05
5.63787e-05
5.69768e-05
5.75639e-05
5.80941e-05
5.85753e-05
5.90426e-05
5.94968e-05
5.98143e-05
6.00938e-05
6.0354e-05
6.00228e-05
5.79628e-05
5.16887e-05
4.2593e-05
3.07432e-05
2.22367e-05
1.90927e-05
1.83556e-05
1.81879e-05
1.81503e-05
1.81423e-05
1.81406e-05
1.81403e-05
1.81402e-05
1.81402e-05
1.81402e-05
1.81402e-05
1.81402e-05
1.81402e-05
5.25843e-05
4.27048e-05
4.2039e-05
4.45729e-05
4.64677e-05
4.79107e-05
4.90419e-05
5.0042e-05
5.09227e-05
5.1712e-05
5.24015e-05
5.30249e-05
5.36005e-05
5.41345e-05
5.46055e-05
5.49012e-05
5.52377e-05
5.57411e-05
5.62713e-05
5.67886e-05
5.73071e-05
5.78058e-05
5.82939e-05
5.87709e-05
5.92267e-05
5.96341e-05
6.00254e-05
6.03742e-05
6.05969e-05
6.07581e-05
6.07607e-05
5.97929e-05
5.73623e-05
5.07115e-05
4.16132e-05
2.98658e-05
2.18631e-05
1.90148e-05
1.83406e-05
1.8185e-05
1.81498e-05
1.81422e-05
1.81406e-05
1.81403e-05
1.81402e-05
1.81402e-05
1.81402e-05
1.81402e-05
1.81402e-05
1.81402e-05
2.58385e-05
3.1024e-05
3.48884e-05
3.99152e-05
4.40841e-05
4.69332e-05
4.9002e-05
5.0606e-05
5.17391e-05
5.27378e-05
5.3738e-05
5.46043e-05
5.53427e-05
5.60104e-05
5.65185e-05
5.68117e-05
5.71073e-05
5.75118e-05
5.7918e-05
5.83172e-05
5.87146e-05
5.91015e-05
5.9487e-05
5.98657e-05
6.02299e-05
6.05663e-05
6.0878e-05
6.11184e-05
6.12451e-05
6.12705e-05
6.09531e-05
5.95839e-05
5.65553e-05
4.96603e-05
4.04971e-05
2.89515e-05
2.1494e-05
1.89383e-05
1.83258e-05
1.81822e-05
1.81492e-05
1.81421e-05
1.81406e-05
1.81403e-05
1.81402e-05
1.81402e-05
1.81402e-05
1.81402e-05
1.81402e-05
1.81402e-05
2.04434e-05
2.43089e-05
2.78148e-05
3.27146e-05
3.82185e-05
4.29855e-05
4.66562e-05
4.91726e-05
5.114e-05
5.26748e-05
5.3848e-05
5.4866e-05
5.57219e-05
5.64621e-05
5.7044e-05
5.77162e-05
5.82673e-05
5.87088e-05
5.91084e-05
5.94721e-05
5.98189e-05
6.01481e-05
6.04613e-05
6.07628e-05
6.10528e-05
6.13166e-05
6.15422e-05
6.16707e-05
6.16972e-05
6.1525e-05
6.07679e-05
5.91154e-05
5.54519e-05
4.84535e-05
3.91503e-05
2.79172e-05
2.11101e-05
1.88585e-05
1.83101e-05
1.81791e-05
1.81487e-05
1.8142e-05
1.81406e-05
1.81403e-05
1.81402e-05
1.81402e-05
1.81402e-05
1.81402e-05
1.81402e-05
1.81402e-05
1.90686e-05
2.12545e-05
2.34847e-05
2.65606e-05
3.07706e-05
3.57201e-05
4.06656e-05
4.48405e-05
4.80661e-05
5.04952e-05
5.24166e-05
5.40255e-05
5.53014e-05
5.63364e-05
5.72006e-05
5.79228e-05
5.85332e-05
5.9054e-05
5.95101e-05
5.99179e-05
6.02855e-05
6.06213e-05
6.09273e-05
6.12066e-05
6.14606e-05
6.16796e-05
6.18332e-05
6.186e-05
6.17506e-05
6.13509e-05
6.03178e-05
5.82953e-05
5.39745e-05
4.70059e-05
3.74645e-05
2.67549e-05
2.06972e-05
1.87717e-05
1.82927e-05
1.81756e-05
1.8148e-05
1.81419e-05
1.81405e-05
1.81403e-05
1.81402e-05
1.81402e-05
1.81402e-05
1.81402e-05
1.81402e-05
1.81402e-05
1.86257e-05
1.98639e-05
2.1315e-05
2.30777e-05
2.54914e-05
2.86421e-05
3.25644e-05
3.69716e-05
4.12883e-05
4.51934e-05
4.83849e-05
5.09706e-05
5.30167e-05
5.46457e-05
5.59761e-05
5.70354e-05
5.78827e-05
5.85825e-05
5.91622e-05
5.96502e-05
6.00671e-05
6.04204e-05
6.07316e-05
6.10032e-05
6.12319e-05
6.14154e-05
6.15024e-05
6.14603e-05
6.12226e-05
6.06238e-05
5.93702e-05
5.69061e-05
5.20779e-05
4.50821e-05
3.53414e-05
2.54224e-05
2.02612e-05
1.86782e-05
1.82731e-05
1.81715e-05
1.81472e-05
1.81417e-05
1.81405e-05
1.81403e-05
1.81402e-05
1.81402e-05
1.81402e-05
1.81402e-05
1.81402e-05
1.81402e-05
1.84417e-05
1.92108e-05
2.01335e-05
2.12856e-05
2.26815e-05
2.44717e-05
2.6724e-05
2.95651e-05
3.29873e-05
3.68281e-05
4.07379e-05
4.43415e-05
4.74243e-05
5.00209e-05
5.21042e-05
5.37523e-05
5.50683e-05
5.61299e-05
5.70214e-05
5.77688e-05
5.83863e-05
5.88931e-05
5.93303e-05
5.96923e-05
5.99951e-05
6.02221e-05
6.03466e-05
6.02621e-05
5.99068e-05
5.91802e-05
5.77647e-05
5.47683e-05
4.96669e-05
4.25233e-05
3.27295e-05
2.39896e-05
1.98206e-05
1.85799e-05
1.82513e-05
1.81668e-05
1.81463e-05
1.81415e-05
1.81405e-05
1.81403e-05
1.81402e-05
1.81402e-05
1.81402e-05
1.81402e-05
1.81402e-05
1.81402e-05
1.83465e-05
1.88615e-05
1.94815e-05
2.02319e-05
2.11606e-05
2.23019e-05
2.36296e-05
2.53375e-05
2.73722e-05
2.98424e-05
3.27186e-05
3.5981e-05
3.9388e-05
4.26301e-05
4.54611e-05
4.78272e-05
4.97796e-05
5.13981e-05
5.27387e-05
5.38644e-05
5.48213e-05
5.56375e-05
5.63409e-05
5.69464e-05
5.74521e-05
5.78495e-05
5.80968e-05
5.80758e-05
5.76694e-05
5.68787e-05
5.52891e-05
5.18872e-05
4.65667e-05
3.91612e-05
2.97039e-05
2.25674e-05
1.93986e-05
1.84813e-05
1.82283e-05
1.81618e-05
1.81452e-05
1.81413e-05
1.81404e-05
1.81402e-05
1.81402e-05
1.81402e-05
1.81402e-05
1.81402e-05
1.81402e-05
1.81402e-05
1.82886e-05
1.8651e-05
1.90856e-05
1.96046e-05
2.02301e-05
2.0994e-05
2.19407e-05
2.3032e-05
2.43199e-05
2.58872e-05
2.77048e-05
2.98864e-05
3.2407e-05
3.51516e-05
3.79142e-05
4.05078e-05
4.28678e-05
4.49492e-05
4.67828e-05
4.83958e-05
4.98089e-05
5.10528e-05
5.2137e-05
5.30806e-05
5.38784e-05
5.45033e-05
5.48934e-05
5.49374e-05
5.45365e-05
5.37177e-05
5.18441e-05
4.80319e-05
4.25209e-05
3.49357e-05
2.65289e-05
2.11308e-05
1.90218e-05
1.83879e-05
1.82057e-05
1.81566e-05
1.81441e-05
1.81411e-05
1.81404e-05
1.81402e-05
1.81402e-05
1.81402e-05
1.81402e-05
1.81402e-05
1.81402e-05
1.81402e-05
1.82493e-05
1.8511e-05
1.88232e-05
1.9194e-05
1.96358e-05
2.01671e-05
2.08135e-05
2.15854e-05
2.25309e-05
2.35653e-05
2.48311e-05
2.63791e-05
2.81426e-05
3.01376e-05
3.22964e-05
3.45219e-05
3.67122e-05
3.88089e-05
4.0778e-05
4.26072e-05
4.42853e-05
4.58054e-05
4.71786e-05
4.83972e-05
4.94283e-05
5.02393e-05
5.07523e-05
5.08259e-05
5.04054e-05
4.94371e-05
4.71147e-05
4.30504e-05
3.73978e-05
3.01024e-05
2.35858e-05
1.9999e-05
1.87126e-05
1.83056e-05
1.81852e-05
1.81518e-05
1.8143e-05
1.81409e-05
1.81403e-05
1.81402e-05
1.81402e-05
1.81402e-05
1.81402e-05
1.81402e-05
1.81402e-05
1.81402e-05
1.82203e-05
1.84106e-05
1.86367e-05
1.89048e-05
1.92223e-05
1.95934e-05
2.00358e-05
2.057e-05
2.12243e-05
2.20372e-05
2.3033e-05
2.41038e-05
2.53737e-05
2.6886e-05
2.85659e-05
3.03766e-05
3.22359e-05
3.40923e-05
3.5908e-05
3.76467e-05
3.92853e-05
4.08124e-05
4.22114e-05
4.34531e-05
4.44958e-05
4.52946e-05
4.57564e-05
4.57409e-05
4.52157e-05
4.38956e-05
4.11143e-05
3.69795e-05
3.14548e-05
2.54755e-05
2.11981e-05
1.9196e-05
1.84773e-05
1.82406e-05
1.81683e-05
1.81476e-05
1.81421e-05
1.81406e-05
1.81403e-05
1.81402e-05
1.81402e-05
1.81402e-05
1.81402e-05
1.81402e-05
1.81402e-05
1.81402e-05
1.81976e-05
1.83331e-05
1.84934e-05
1.86824e-05
1.89049e-05
1.91678e-05
1.94808e-05
1.9858e-05
2.03192e-05
2.08924e-05
2.15689e-05
2.24151e-05
2.341e-05
2.45404e-05
2.58622e-05
2.73111e-05
2.88279e-05
3.03746e-05
3.19115e-05
3.34076e-05
3.48324e-05
3.61645e-05
3.73708e-05
3.84198e-05
3.92599e-05
3.98336e-05
4.00371e-05
3.98009e-05
3.90135e-05
3.71779e-05
3.4253e-05
3.03187e-05
2.58036e-05
2.19458e-05
1.96476e-05
1.86782e-05
1.83173e-05
1.81945e-05
1.81558e-05
1.81444e-05
1.81413e-05
1.81405e-05
1.81403e-05
1.81402e-05
1.81402e-05
1.81402e-05
1.81402e-05
1.81402e-05
1.81402e-05
1.81402e-05
1.81793e-05
1.8272e-05
1.83825e-05
1.85135e-05
1.86687e-05
1.88526e-05
1.90718e-05
1.93355e-05
1.96413e-05
2.00134e-05
2.0477e-05
2.10622e-05
2.18004e-05
2.2716e-05
2.37264e-05
2.48162e-05
2.59886e-05
2.72028e-05
2.84099e-05
2.95793e-05
3.06846e-05
3.16958e-05
3.25795e-05
3.32949e-05
3.37877e-05
3.39922e-05
3.38523e-05
3.33173e-05
3.20905e-05
3.01552e-05
2.75372e-05
2.45221e-05
2.17163e-05
1.97655e-05
1.87951e-05
1.83804e-05
1.82214e-05
1.81657e-05
1.81477e-05
1.81423e-05
1.81407e-05
1.81403e-05
1.81402e-05
1.81402e-05
1.81402e-05
1.81402e-05
1.81402e-05
1.81402e-05
1.81402e-05
1.81402e-05
1.81651e-05
1.82251e-05
1.8298e-05
1.83858e-05
1.84908e-05
1.86129e-05
1.87558e-05
1.89244e-05
1.91256e-05
1.93699e-05
1.96722e-05
2.00525e-05
2.05273e-05
2.11088e-05
2.1817e-05
2.26399e-05
2.34935e-05
2.43458e-05
2.51977e-05
2.60173e-05
2.67735e-05
2.7414e-05
2.79215e-05
2.82594e-05
2.83778e-05
2.82692e-05
2.78646e-05
2.70289e-05
2.57865e-05
2.42053e-05
2.24321e-05
2.06882e-05
1.94516e-05
1.87358e-05
1.83835e-05
1.82309e-05
1.81715e-05
1.81502e-05
1.81432e-05
1.81411e-05
1.81404e-05
1.81403e-05
1.81402e-05
1.81402e-05
1.81402e-05
1.81402e-05
1.81402e-05
1.81402e-05
1.81402e-05
1.81402e-05
1.81535e-05
1.8188e-05
1.82318e-05
1.82857e-05
1.83505e-05
1.84271e-05
1.85169e-05
1.8622e-05
1.87461e-05
1.88941e-05
1.90717e-05
1.92853e-05
1.95509e-05
1.98798e-05
2.02784e-05
2.07448e-05
2.12629e-05
2.18045e-05
2.23418e-05
2.28464e-05
2.32646e-05
2.35795e-05
2.37806e-05
2.38224e-05
2.37376e-05
2.34591e-05
2.29528e-05
2.21914e-05
2.12921e-05
2.03657e-05
1.95481e-05
1.89319e-05
1.85364e-05
1.83181e-05
1.82128e-05
1.81674e-05
1.81497e-05
1.81433e-05
1.81411e-05
1.81405e-05
1.81403e-05
1.81402e-05
1.81402e-05
1.81402e-05
1.81402e-05
1.81402e-05
1.81402e-05
1.81402e-05
1.81402e-05
1.81402e-05
1.81445e-05
1.81594e-05
1.81821e-05
1.82114e-05
1.82471e-05
1.82895e-05
1.8339e-05
1.8396e-05
1.84599e-05
1.85335e-05
1.86194e-05
1.87216e-05
1.88453e-05
1.89954e-05
1.91746e-05
1.93811e-05
1.96076e-05
1.98401e-05
2.00619e-05
2.0256e-05
2.04051e-05
2.04927e-05
2.05101e-05
2.04632e-05
2.03107e-05
2.00557e-05
1.97306e-05
1.93713e-05
1.90183e-05
1.8712e-05
1.84773e-05
1.83192e-05
1.82261e-05
1.81777e-05
1.81553e-05
1.81458e-05
1.81421e-05
1.81408e-05
1.81404e-05
1.81402e-05
1.81402e-05
1.81402e-05
1.81402e-05
1.81402e-05
1.81402e-05
1.81402e-05
1.81402e-05
1.81402e-05
1.81402e-05
1.81402e-05
1.81404e-05
1.81437e-05
1.815e-05
1.81593e-05
1.81715e-05
1.81862e-05
1.82029e-05
1.82203e-05
1.824e-05
1.8262e-05
1.82864e-05
1.83138e-05
1.83455e-05
1.83824e-05
1.8425e-05
1.84725e-05
1.85218e-05
1.85693e-05
1.86107e-05
1.86417e-05
1.86586e-05
1.86581e-05
1.86386e-05
1.85991e-05
1.85409e-05
1.84704e-05
1.83955e-05
1.83243e-05
1.82635e-05
1.82165e-05
1.81837e-05
1.81629e-05
1.81513e-05
1.81453e-05
1.81422e-05
1.81408e-05
1.81404e-05
1.81403e-05
1.81402e-05
1.81402e-05
1.81402e-05
1.81402e-05
1.81402e-05
1.81402e-05
1.81402e-05
1.81402e-05
1.81402e-05
1.81402e-05
1.81402e-05
1.81402e-05
)
;

boundaryField
{
    AXIS
    {
        type            empty;
    }
    OUTLET
    {
        type            calculated;
        value           uniform 1.81402e-05;
    }
    COFLOW
    {
        type            calculated;
        value           uniform 1.81402e-05;
    }
    PILOT
    {
        type            calculated;
        value           uniform 7.09187e-05;
    }
    FUEL
    {
        type            calculated;
        value           uniform 1.81402e-05;
    }
    WALL
    {
        type            calculated;
        value           nonuniform List<scalar> 
50
(
1.81404e-05
1.81437e-05
1.815e-05
1.81593e-05
1.81715e-05
1.81862e-05
1.82029e-05
1.82203e-05
1.824e-05
1.8262e-05
1.82864e-05
1.83138e-05
1.83455e-05
1.83824e-05
1.8425e-05
1.84725e-05
1.85218e-05
1.85693e-05
1.86107e-05
1.86417e-05
1.86586e-05
1.86581e-05
1.86386e-05
1.85991e-05
1.85409e-05
1.84704e-05
1.83955e-05
1.83243e-05
1.82635e-05
1.82165e-05
1.81837e-05
1.81629e-05
1.81513e-05
1.81453e-05
1.81422e-05
1.81408e-05
1.81404e-05
1.81403e-05
1.81402e-05
1.81402e-05
1.81402e-05
1.81402e-05
1.81402e-05
1.81402e-05
1.81402e-05
1.81402e-05
1.81402e-05
1.81402e-05
1.81402e-05
1.81402e-05
)
;
    }
    front
    {
        type            wedge;
    }
    back
    {
        type            wedge;
    }
}


// ************************************************************************* //
