/*--------------------------------*- C++ -*----------------------------------*\
| =========                 |                                                 |
| \\      /  F ield         | OpenFOAM: The Open Source CFD Toolbox           |
|  \\    /   O peration     | Version:  2.4.x                                 |
|   \\  /    A nd           | Web:      www.OpenFOAM.org                      |
|    \\/     M anipulation  |                                                 |
\*---------------------------------------------------------------------------*/
FoamFile
{
    version     2.0;
    format      ascii;
    class       volScalarField;
    location    "0.05";
    object      thermo:alpha;
}
// * * * * * * * * * * * * * * * * * * * * * * * * * * * * * * * * * * * * * //

dimensions      [1 -1 -1 0 0 0 0];

internalField   nonuniform List<scalar> 
1250
(
2.72206e-05
2.99471e-05
3.26834e-05
3.51695e-05
3.74834e-05
3.96228e-05
4.16183e-05
4.34903e-05
4.53341e-05
4.74223e-05
4.94524e-05
5.13758e-05
5.32871e-05
5.51728e-05
5.70015e-05
5.8823e-05
6.0541e-05
6.21274e-05
6.36779e-05
6.5212e-05
6.67262e-05
6.82253e-05
6.9708e-05
7.10164e-05
7.2432e-05
7.38832e-05
7.52552e-05
7.6656e-05
7.80067e-05
7.88687e-05
7.99351e-05
8.17835e-05
8.38957e-05
7.93889e-05
6.60283e-05
4.97164e-05
3.46015e-05
2.8234e-05
2.66982e-05
2.63658e-05
2.62942e-05
2.62792e-05
2.62763e-05
2.62757e-05
2.62756e-05
2.62756e-05
2.62756e-05
2.62756e-05
2.62756e-05
2.62756e-05
2.73916e-05
3.04119e-05
3.32311e-05
3.57543e-05
3.8063e-05
4.01674e-05
4.21087e-05
4.39202e-05
4.59605e-05
4.80377e-05
5.00417e-05
5.19398e-05
5.38326e-05
5.56819e-05
5.74922e-05
5.92937e-05
6.09803e-05
6.25411e-05
6.40762e-05
6.55922e-05
6.70933e-05
6.85776e-05
7.00432e-05
7.1336e-05
7.26669e-05
7.4109e-05
7.5465e-05
7.68557e-05
7.81822e-05
7.90441e-05
8.00931e-05
8.19228e-05
8.39165e-05
7.9275e-05
6.59226e-05
4.96191e-05
3.45581e-05
2.82226e-05
2.66959e-05
2.63653e-05
2.62941e-05
2.62792e-05
2.62763e-05
2.62757e-05
2.62756e-05
2.62756e-05
2.62756e-05
2.62756e-05
2.62756e-05
2.62756e-05
2.79253e-05
3.16933e-05
3.46804e-05
3.72361e-05
3.94601e-05
4.13898e-05
4.32902e-05
4.53635e-05
4.7417e-05
4.94342e-05
5.13725e-05
5.32126e-05
5.50319e-05
5.68159e-05
5.85881e-05
6.03327e-05
6.19465e-05
6.34579e-05
6.49529e-05
6.64326e-05
6.79012e-05
6.93487e-05
7.07772e-05
7.2032e-05
7.32337e-05
7.46052e-05
7.59313e-05
7.72954e-05
7.85743e-05
7.9439e-05
8.04432e-05
8.22207e-05
8.39363e-05
7.89886e-05
6.56589e-05
4.93613e-05
3.44373e-05
2.81913e-05
2.66898e-05
2.63642e-05
2.62939e-05
2.62792e-05
2.62763e-05
2.62757e-05
2.62756e-05
2.62756e-05
2.62756e-05
2.62756e-05
2.62756e-05
2.62756e-05
2.95082e-05
3.4486e-05
3.75441e-05
3.97744e-05
4.17594e-05
4.38369e-05
4.58364e-05
4.77738e-05
4.97048e-05
5.16139e-05
5.34207e-05
5.51378e-05
5.68523e-05
5.85547e-05
6.02347e-05
6.18867e-05
6.33943e-05
6.48359e-05
6.62725e-05
6.76975e-05
6.91044e-05
7.04923e-05
7.18548e-05
7.30538e-05
7.42034e-05
7.53425e-05
7.66275e-05
7.79418e-05
7.91592e-05
8.00137e-05
8.0961e-05
8.26436e-05
8.38862e-05
7.85213e-05
6.52376e-05
4.89283e-05
3.42323e-05
2.81384e-05
2.66797e-05
2.63622e-05
2.62935e-05
2.62791e-05
2.62762e-05
2.62757e-05
2.62756e-05
2.62756e-05
2.62756e-05
2.62756e-05
2.62756e-05
2.62756e-05
3.52917e-05
4.07768e-05
4.23756e-05
4.42565e-05
4.59795e-05
4.76185e-05
4.92989e-05
5.10129e-05
5.27529e-05
5.44968e-05
5.60985e-05
5.76714e-05
5.92372e-05
6.07909e-05
6.2345e-05
6.39023e-05
6.52803e-05
6.66415e-05
6.79904e-05
6.93297e-05
7.06502e-05
7.1949e-05
7.32311e-05
7.4365e-05
7.54462e-05
7.65119e-05
7.75342e-05
7.87904e-05
7.99196e-05
8.07389e-05
8.16243e-05
8.31333e-05
8.35623e-05
7.78591e-05
6.46738e-05
4.83229e-05
3.39481e-05
2.80658e-05
2.66658e-05
2.63596e-05
2.6293e-05
2.6279e-05
2.62762e-05
2.62757e-05
2.62756e-05
2.62756e-05
2.62756e-05
2.62756e-05
2.62756e-05
2.62756e-05
6.05585e-05
5.1858e-05
5.04104e-05
5.07592e-05
5.16623e-05
5.27658e-05
5.4037e-05
5.54359e-05
5.68403e-05
5.8215e-05
5.9448e-05
6.07214e-05
6.20129e-05
6.3438e-05
6.48716e-05
6.62844e-05
6.75345e-05
6.87818e-05
7.00236e-05
7.12575e-05
7.24666e-05
7.36609e-05
7.484e-05
7.59085e-05
7.69069e-05
7.78981e-05
7.88411e-05
7.98332e-05
8.08299e-05
8.16021e-05
8.23912e-05
8.3647e-05
8.34089e-05
7.69826e-05
6.40142e-05
4.75362e-05
3.3595e-05
2.79763e-05
2.66487e-05
2.63563e-05
2.62924e-05
2.62789e-05
2.62762e-05
2.62757e-05
2.62756e-05
2.62756e-05
2.62756e-05
2.62756e-05
2.62756e-05
2.62756e-05
8.09652e-05
6.37699e-05
5.88365e-05
5.75426e-05
5.74682e-05
5.81031e-05
5.90038e-05
6.00602e-05
6.12109e-05
6.22913e-05
6.3303e-05
6.43622e-05
6.54414e-05
6.654e-05
6.76779e-05
6.8916e-05
7.0041e-05
7.11607e-05
7.22798e-05
7.33876e-05
7.44752e-05
7.55534e-05
7.66272e-05
7.76269e-05
7.85332e-05
7.94278e-05
8.02933e-05
8.11862e-05
8.1903e-05
8.25485e-05
8.33928e-05
8.41667e-05
8.31365e-05
7.59405e-05
6.31916e-05
4.65961e-05
3.31877e-05
2.7874e-05
2.66293e-05
2.63526e-05
2.62917e-05
2.62788e-05
2.62762e-05
2.62757e-05
2.62756e-05
2.62756e-05
2.62756e-05
2.62756e-05
2.62756e-05
2.62756e-05
8.98649e-05
7.02856e-05
6.4276e-05
6.27268e-05
6.2355e-05
6.28611e-05
6.36315e-05
6.45294e-05
6.5504e-05
6.63464e-05
6.71735e-05
6.80399e-05
6.89333e-05
6.98436e-05
7.07552e-05
7.16334e-05
7.26299e-05
7.36216e-05
7.46131e-05
7.55976e-05
7.65732e-05
7.75433e-05
7.85044e-05
7.94435e-05
8.02586e-05
8.10463e-05
8.18098e-05
8.25884e-05
8.31783e-05
8.37075e-05
8.43659e-05
8.46028e-05
8.27154e-05
7.47979e-05
6.21749e-05
4.5529e-05
3.27174e-05
2.77636e-05
2.66082e-05
2.63486e-05
2.62909e-05
2.62787e-05
2.62762e-05
2.62757e-05
2.62756e-05
2.62756e-05
2.62756e-05
2.62756e-05
2.62756e-05
2.62756e-05
8.91326e-05
7.03297e-05
6.53111e-05
6.5051e-05
6.56557e-05
6.63585e-05
6.73408e-05
6.83016e-05
6.9236e-05
6.9984e-05
7.07254e-05
7.14793e-05
7.22407e-05
7.30099e-05
7.37867e-05
7.44827e-05
7.52408e-05
7.61114e-05
7.69899e-05
7.78547e-05
7.87134e-05
7.95595e-05
8.04003e-05
8.12268e-05
8.19752e-05
8.26561e-05
8.33176e-05
8.39616e-05
8.44135e-05
8.48146e-05
8.52026e-05
8.48231e-05
8.21161e-05
7.35586e-05
6.09757e-05
4.43435e-05
3.21779e-05
2.76498e-05
2.65863e-05
2.63444e-05
2.62902e-05
2.62785e-05
2.62762e-05
2.62757e-05
2.62756e-05
2.62756e-05
2.62756e-05
2.62756e-05
2.62756e-05
2.62756e-05
7.48887e-05
6.11011e-05
6.00908e-05
6.3525e-05
6.60827e-05
6.80256e-05
6.95475e-05
7.0897e-05
7.20892e-05
7.31605e-05
7.4097e-05
7.49457e-05
7.57306e-05
7.64604e-05
7.71074e-05
7.75177e-05
7.79867e-05
7.86902e-05
7.94318e-05
8.01564e-05
8.08842e-05
8.15859e-05
8.2274e-05
8.29476e-05
8.35922e-05
8.41694e-05
8.47243e-05
8.52205e-05
8.55392e-05
8.57757e-05
8.58083e-05
8.45449e-05
8.13164e-05
7.2216e-05
5.96141e-05
4.30964e-05
3.16406e-05
2.75374e-05
2.65647e-05
2.63403e-05
2.62894e-05
2.62784e-05
2.62761e-05
2.62757e-05
2.62756e-05
2.62756e-05
2.62756e-05
2.62756e-05
2.62756e-05
2.62756e-05
3.73478e-05
4.47378e-05
5.01777e-05
5.7174e-05
6.29173e-05
6.68145e-05
6.9633e-05
7.18122e-05
7.33452e-05
7.46999e-05
7.60647e-05
7.7245e-05
7.82506e-05
7.91616e-05
7.98545e-05
8.02526e-05
8.06573e-05
8.12188e-05
8.17849e-05
8.23432e-05
8.29005e-05
8.34444e-05
8.39876e-05
8.45223e-05
8.50374e-05
8.5514e-05
8.59568e-05
8.63002e-05
8.64841e-05
8.65315e-05
8.61235e-05
8.43002e-05
8.02296e-05
7.07692e-05
5.80609e-05
4.17946e-05
3.11095e-05
2.7427e-05
2.65434e-05
2.63361e-05
2.62886e-05
2.62783e-05
2.62761e-05
2.62757e-05
2.62756e-05
2.62756e-05
2.62756e-05
2.62756e-05
2.62756e-05
2.62756e-05
2.95965e-05
3.5154e-05
4.01682e-05
4.71208e-05
5.48389e-05
6.145e-05
6.65177e-05
6.99622e-05
7.26516e-05
7.4744e-05
7.63394e-05
7.77247e-05
7.88896e-05
7.98982e-05
8.06903e-05
8.16137e-05
8.23697e-05
8.29755e-05
8.35263e-05
8.40299e-05
8.45123e-05
8.49721e-05
8.54111e-05
8.5835e-05
8.6244e-05
8.66165e-05
8.69368e-05
8.7122e-05
8.71649e-05
8.69387e-05
8.59178e-05
8.36989e-05
7.8732e-05
6.91051e-05
5.61827e-05
4.03195e-05
3.05568e-05
2.73119e-05
2.65208e-05
2.63317e-05
2.62878e-05
2.62781e-05
2.62761e-05
2.62757e-05
2.62756e-05
2.62756e-05
2.62756e-05
2.62756e-05
2.62756e-05
2.62756e-05
2.76149e-05
3.07643e-05
3.39704e-05
3.83776e-05
4.43745e-05
5.13596e-05
5.82648e-05
6.40531e-05
6.8513e-05
7.18514e-05
7.44853e-05
7.66882e-05
7.84316e-05
7.98437e-05
8.10221e-05
8.20076e-05
8.28414e-05
8.3554e-05
8.41796e-05
8.47409e-05
8.52485e-05
8.5714e-05
8.61397e-05
8.65295e-05
8.68851e-05
8.71922e-05
8.74092e-05
8.74497e-05
8.73022e-05
8.67578e-05
8.53522e-05
8.26141e-05
7.67158e-05
6.71046e-05
5.38252e-05
3.86588e-05
2.99623e-05
2.71867e-05
2.64956e-05
2.63266e-05
2.62869e-05
2.6278e-05
2.62761e-05
2.62757e-05
2.62756e-05
2.62756e-05
2.62756e-05
2.62756e-05
2.62756e-05
2.62756e-05
2.6976e-05
2.87614e-05
3.08513e-05
3.33859e-05
3.68486e-05
4.13503e-05
4.69195e-05
5.31237e-05
5.91472e-05
6.45712e-05
6.89964e-05
7.25681e-05
7.53853e-05
7.76221e-05
7.9446e-05
8.08963e-05
8.20551e-05
8.30122e-05
8.38051e-05
8.44735e-05
8.50455e-05
8.55312e-05
8.596e-05
8.63352e-05
8.66514e-05
8.69052e-05
8.70253e-05
8.69671e-05
8.66388e-05
8.58156e-05
8.41008e-05
8.07407e-05
7.41153e-05
6.44366e-05
5.08446e-05
3.67514e-05
2.93341e-05
2.70518e-05
2.64673e-05
2.63207e-05
2.62857e-05
2.62778e-05
2.6276e-05
2.62757e-05
2.62756e-05
2.62756e-05
2.62756e-05
2.62756e-05
2.62756e-05
2.62756e-05
2.67106e-05
2.782e-05
2.91499e-05
3.0809e-05
3.28169e-05
3.53875e-05
3.86133e-05
4.26664e-05
4.75212e-05
5.29302e-05
5.83952e-05
6.34077e-05
6.76917e-05
7.12908e-05
7.41707e-05
7.6444e-05
7.82561e-05
7.97157e-05
8.09405e-05
8.19665e-05
8.28139e-05
8.35092e-05
8.4109e-05
8.46054e-05
8.50202e-05
8.53301e-05
8.5498e-05
8.53775e-05
8.48838e-05
8.38806e-05
8.19372e-05
7.78262e-05
7.07949e-05
6.08826e-05
4.71595e-05
3.46967e-05
2.86992e-05
2.69101e-05
2.6436e-05
2.6314e-05
2.62844e-05
2.62775e-05
2.6276e-05
2.62757e-05
2.62756e-05
2.62756e-05
2.62756e-05
2.62756e-05
2.62756e-05
2.62756e-05
2.65732e-05
2.73162e-05
2.82102e-05
2.92918e-05
3.06292e-05
3.22714e-05
3.41793e-05
3.66292e-05
3.95406e-05
4.30627e-05
4.71437e-05
5.17446e-05
5.65182e-05
6.10378e-05
6.49779e-05
6.8269e-05
7.09785e-05
7.32203e-05
7.50742e-05
7.6629e-05
7.79491e-05
7.90738e-05
8.00421e-05
8.08748e-05
8.15691e-05
8.21128e-05
8.24487e-05
8.24136e-05
8.18472e-05
8.07526e-05
7.85619e-05
7.38711e-05
6.6504e-05
5.61993e-05
4.28661e-05
3.26535e-05
2.80908e-05
2.67677e-05
2.64027e-05
2.63067e-05
2.62829e-05
2.62772e-05
2.62759e-05
2.62756e-05
2.62756e-05
2.62756e-05
2.62756e-05
2.62756e-05
2.62756e-05
2.62756e-05
2.64898e-05
2.70125e-05
2.76393e-05
2.83878e-05
2.92891e-05
3.03895e-05
3.17521e-05
3.33211e-05
3.51704e-05
3.7417e-05
4.00162e-05
4.31261e-05
4.67041e-05
5.05799e-05
5.446e-05
5.80853e-05
6.1374e-05
6.42718e-05
6.68251e-05
6.90677e-05
7.10293e-05
7.27537e-05
7.42546e-05
7.55591e-05
7.66605e-05
7.75215e-05
7.80562e-05
7.81119e-05
7.75527e-05
7.64176e-05
7.38258e-05
6.85432e-05
6.0882e-05
5.02739e-05
3.83356e-05
3.05866e-05
2.75474e-05
2.6633e-05
2.63701e-05
2.62993e-05
2.62812e-05
2.62769e-05
2.62759e-05
2.62756e-05
2.62756e-05
2.62756e-05
2.62756e-05
2.62756e-05
2.62756e-05
2.62756e-05
2.64329e-05
2.68106e-05
2.72609e-05
2.77957e-05
2.84327e-05
2.91984e-05
3.01297e-05
3.12409e-05
3.2601e-05
3.40875e-05
3.5904e-05
3.81215e-05
4.06417e-05
4.34841e-05
4.65482e-05
4.96934e-05
5.27754e-05
5.57135e-05
5.84635e-05
6.10125e-05
6.33488e-05
6.54661e-05
6.73775e-05
6.90714e-05
7.05027e-05
7.16269e-05
7.23366e-05
7.24356e-05
7.18493e-05
7.05041e-05
6.72768e-05
6.16208e-05
5.37334e-05
4.34333e-05
3.41169e-05
2.89563e-05
2.71015e-05
2.65143e-05
2.63405e-05
2.62923e-05
2.62797e-05
2.62765e-05
2.62758e-05
2.62756e-05
2.62756e-05
2.62756e-05
2.62756e-05
2.62756e-05
2.62756e-05
2.62756e-05
2.63912e-05
2.66657e-05
2.6992e-05
2.73787e-05
2.78366e-05
2.83717e-05
2.90093e-05
2.97789e-05
3.07213e-05
3.18911e-05
3.33228e-05
3.48607e-05
3.6682e-05
3.88468e-05
4.12459e-05
4.38242e-05
4.64627e-05
4.90878e-05
5.16457e-05
5.40866e-05
5.638e-05
5.85119e-05
6.04616e-05
6.21905e-05
6.36418e-05
6.47539e-05
6.53968e-05
6.53742e-05
6.46409e-05
6.28018e-05
5.89281e-05
5.31479e-05
4.53542e-05
3.68276e-05
3.06836e-05
2.77987e-05
2.67621e-05
2.64205e-05
2.63161e-05
2.62863e-05
2.62783e-05
2.62762e-05
2.62757e-05
2.62756e-05
2.62756e-05
2.62756e-05
2.62756e-05
2.62756e-05
2.62756e-05
2.62756e-05
2.63584e-05
2.65539e-05
2.67853e-05
2.70578e-05
2.73788e-05
2.7758e-05
2.82094e-05
2.8753e-05
2.94176e-05
3.02434e-05
3.12172e-05
3.24346e-05
3.38645e-05
3.54872e-05
3.73818e-05
3.94546e-05
4.16196e-05
4.38214e-05
4.60032e-05
4.81209e-05
5.01316e-05
5.20064e-05
5.36998e-05
5.51693e-05
5.63441e-05
5.71455e-05
5.74294e-05
5.70992e-05
5.59988e-05
5.34277e-05
4.93132e-05
4.37411e-05
3.72977e-05
3.17596e-05
2.84498e-05
2.70518e-05
2.65312e-05
2.6354e-05
2.62981e-05
2.62817e-05
2.62771e-05
2.6276e-05
2.62757e-05
2.62756e-05
2.62756e-05
2.62756e-05
2.62756e-05
2.62756e-05
2.62756e-05
2.62756e-05
2.63321e-05
2.64658e-05
2.66252e-05
2.68143e-05
2.70381e-05
2.73035e-05
2.76195e-05
2.79999e-05
2.84407e-05
2.89771e-05
2.9645e-05
3.04878e-05
3.15504e-05
3.28673e-05
3.4319e-05
3.58829e-05
3.75628e-05
3.92999e-05
4.10234e-05
4.269e-05
4.4262e-05
4.56973e-05
4.69494e-05
4.79614e-05
4.86577e-05
4.89463e-05
4.87487e-05
4.79928e-05
4.62564e-05
4.35091e-05
3.97774e-05
3.54609e-05
3.14294e-05
2.86197e-05
2.72205e-05
2.66222e-05
2.63927e-05
2.63124e-05
2.62864e-05
2.62786e-05
2.62764e-05
2.62758e-05
2.62756e-05
2.62756e-05
2.62756e-05
2.62756e-05
2.62756e-05
2.62756e-05
2.62756e-05
2.62756e-05
2.63114e-05
2.6398e-05
2.65032e-05
2.663e-05
2.67815e-05
2.69577e-05
2.71638e-05
2.7407e-05
2.76972e-05
2.80494e-05
2.84853e-05
2.90334e-05
2.97175e-05
3.0555e-05
3.15744e-05
3.27579e-05
3.39845e-05
3.52081e-05
3.64299e-05
3.7604e-05
3.8686e-05
3.96017e-05
4.03264e-05
4.08088e-05
4.09776e-05
4.08227e-05
4.02451e-05
3.90512e-05
3.72734e-05
3.50064e-05
3.24591e-05
2.99493e-05
2.81673e-05
2.7135e-05
2.66267e-05
2.64065e-05
2.63207e-05
2.62901e-05
2.62799e-05
2.62768e-05
2.62759e-05
2.62757e-05
2.62756e-05
2.62756e-05
2.62756e-05
2.62756e-05
2.62756e-05
2.62756e-05
2.62756e-05
2.62756e-05
2.62948e-05
2.63446e-05
2.64078e-05
2.64855e-05
2.65791e-05
2.66896e-05
2.68191e-05
2.69708e-05
2.71497e-05
2.73633e-05
2.76195e-05
2.79275e-05
2.83105e-05
2.87846e-05
2.93589e-05
3.00308e-05
3.07769e-05
3.15564e-05
3.23292e-05
3.30548e-05
3.36558e-05
3.4108e-05
3.43968e-05
3.44569e-05
3.43351e-05
3.39352e-05
3.32077e-05
3.2113e-05
3.08189e-05
2.94847e-05
2.83064e-05
2.74178e-05
2.68472e-05
2.65323e-05
2.63803e-05
2.63149e-05
2.62892e-05
2.628e-05
2.62769e-05
2.6276e-05
2.62757e-05
2.62756e-05
2.62756e-05
2.62756e-05
2.62756e-05
2.62756e-05
2.62756e-05
2.62756e-05
2.62756e-05
2.62756e-05
2.62818e-05
2.63033e-05
2.63361e-05
2.63783e-05
2.64299e-05
2.6491e-05
2.65624e-05
2.66447e-05
2.67369e-05
2.68432e-05
2.6967e-05
2.71144e-05
2.72929e-05
2.75093e-05
2.77678e-05
2.80656e-05
2.83922e-05
2.87273e-05
2.9047e-05
2.93266e-05
2.95415e-05
2.96677e-05
2.96928e-05
2.96251e-05
2.94055e-05
2.90381e-05
2.85695e-05
2.80514e-05
2.75424e-05
2.71005e-05
2.6762e-05
2.65339e-05
2.63996e-05
2.63298e-05
2.62973e-05
2.62836e-05
2.62783e-05
2.62765e-05
2.62758e-05
2.62756e-05
2.62756e-05
2.62756e-05
2.62756e-05
2.62756e-05
2.62756e-05
2.62756e-05
2.62756e-05
2.62756e-05
2.62756e-05
2.62756e-05
2.62758e-05
2.62806e-05
2.62897e-05
2.63031e-05
2.63207e-05
2.6342e-05
2.6366e-05
2.63912e-05
2.64196e-05
2.64513e-05
2.64865e-05
2.65261e-05
2.65718e-05
2.66251e-05
2.66866e-05
2.67551e-05
2.68262e-05
2.68948e-05
2.69545e-05
2.69993e-05
2.70235e-05
2.70228e-05
2.69947e-05
2.69378e-05
2.68538e-05
2.6752e-05
2.6644e-05
2.65413e-05
2.64534e-05
2.63857e-05
2.63383e-05
2.63084e-05
2.62915e-05
2.62829e-05
2.62785e-05
2.62764e-05
2.62758e-05
2.62757e-05
2.62756e-05
2.62756e-05
2.62756e-05
2.62756e-05
2.62756e-05
2.62756e-05
2.62756e-05
2.62756e-05
2.62756e-05
2.62756e-05
2.62756e-05
2.62756e-05
)
;

boundaryField
{
    AXIS
    {
        type            empty;
    }
    OUTLET
    {
        type            calculated;
        value           uniform 2.62756e-05;
    }
    COFLOW
    {
        type            calculated;
        value           uniform 2.62756e-05;
    }
    PILOT
    {
        type            calculated;
        value           uniform 0.000100126;
    }
    FUEL
    {
        type            calculated;
        value           uniform 2.61542e-05;
    }
    WALL
    {
        type            calculated;
        value           nonuniform List<scalar> 
50
(
2.62758e-05
2.62806e-05
2.62897e-05
2.63031e-05
2.63207e-05
2.6342e-05
2.6366e-05
2.63912e-05
2.64196e-05
2.64513e-05
2.64865e-05
2.65261e-05
2.65718e-05
2.66251e-05
2.66866e-05
2.67551e-05
2.68262e-05
2.68948e-05
2.69545e-05
2.69993e-05
2.70235e-05
2.70228e-05
2.69947e-05
2.69378e-05
2.68538e-05
2.6752e-05
2.6644e-05
2.65413e-05
2.64534e-05
2.63857e-05
2.63383e-05
2.63084e-05
2.62915e-05
2.62829e-05
2.62785e-05
2.62764e-05
2.62758e-05
2.62757e-05
2.62756e-05
2.62756e-05
2.62756e-05
2.62756e-05
2.62756e-05
2.62756e-05
2.62756e-05
2.62756e-05
2.62756e-05
2.62756e-05
2.62756e-05
2.62756e-05
)
;
    }
    front
    {
        type            wedge;
    }
    back
    {
        type            wedge;
    }
}


// ************************************************************************* //
