/*--------------------------------*- C++ -*----------------------------------*\
| =========                 |                                                 |
| \\      /  F ield         | OpenFOAM: The Open Source CFD Toolbox           |
|  \\    /   O peration     | Version:  2.4.x                                 |
|   \\  /    A nd           | Web:      www.OpenFOAM.org                      |
|    \\/     M anipulation  |                                                 |
\*---------------------------------------------------------------------------*/
FoamFile
{
    version     2.0;
    format      ascii;
    class       volScalarField;
    location    "0.05";
    object      thermo:psi;
}
// * * * * * * * * * * * * * * * * * * * * * * * * * * * * * * * * * * * * * //

dimensions      [0 -2 2 0 0 0 0];

internalField   nonuniform List<scalar> 
1250
(
1.00129e-05
8.92384e-06
8.00483e-06
7.28984e-06
6.70827e-06
6.23115e-06
5.8312e-06
5.49036e-06
5.18232e-06
4.85969e-06
4.57328e-06
4.32439e-06
4.09605e-06
3.88752e-06
3.69983e-06
3.52559e-06
3.37203e-06
3.23878e-06
3.1159e-06
3.00118e-06
2.89405e-06
2.79351e-06
2.69919e-06
2.6202e-06
2.53755e-06
2.4566e-06
2.38379e-06
2.31282e-06
2.24751e-06
2.2091e-06
2.16724e-06
2.10651e-06
2.06617e-06
2.34011e-06
3.25176e-06
5.10558e-06
8.42543e-06
1.08414e-05
1.15841e-05
1.17553e-05
1.17927e-05
1.18006e-05
1.18021e-05
1.18024e-05
1.18025e-05
1.18025e-05
1.18025e-05
1.18025e-05
1.18025e-05
1.18025e-05
9.93849e-06
8.75615e-06
7.83817e-06
7.13603e-06
6.57444e-06
6.1194e-06
5.74103e-06
5.41908e-06
5.08368e-06
4.77147e-06
4.49604e-06
4.25635e-06
4.03527e-06
3.8351e-06
3.65285e-06
3.48363e-06
3.33541e-06
3.20634e-06
3.08646e-06
2.97467e-06
2.86983e-06
2.77151e-06
2.67935e-06
2.60215e-06
2.52556e-06
2.44566e-06
2.37416e-06
2.30412e-06
2.24035e-06
2.20212e-06
2.16135e-06
2.10172e-06
2.06665e-06
2.34661e-06
3.26065e-06
5.12051e-06
8.43903e-06
1.08466e-05
1.15853e-05
1.17556e-05
1.17928e-05
1.18006e-05
1.18021e-05
1.18024e-05
1.18025e-05
1.18025e-05
1.18025e-05
1.18025e-05
1.18025e-05
1.18025e-05
9.7116e-06
8.31781e-06
7.42187e-06
6.76829e-06
6.26946e-06
5.88161e-06
5.53262e-06
5.18198e-06
4.86518e-06
4.58034e-06
4.32896e-06
4.10878e-06
3.90669e-06
3.72226e-06
3.55122e-06
3.39377e-06
3.25706e-06
3.13624e-06
3.0233e-06
2.9174e-06
2.81769e-06
2.72434e-06
2.63675e-06
2.56357e-06
2.49642e-06
2.42191e-06
2.35295e-06
2.28516e-06
2.22445e-06
2.18646e-06
2.14843e-06
2.09173e-06
2.06894e-06
2.36297e-06
3.28296e-06
5.16033e-06
8.47708e-06
1.0861e-05
1.15884e-05
1.17562e-05
1.17929e-05
1.18006e-05
1.18021e-05
1.18024e-05
1.18025e-05
1.18025e-05
1.18025e-05
1.18025e-05
1.18025e-05
1.18025e-05
9.08282e-06
7.47074e-06
6.69406e-06
6.20722e-06
5.81738e-06
5.44208e-06
5.11263e-06
4.81967e-06
4.55061e-06
4.3051e-06
4.09034e-06
3.90066e-06
3.72362e-06
3.55907e-06
3.40681e-06
3.26622e-06
3.14513e-06
3.03564e-06
2.93211e-06
2.83453e-06
2.7429e-06
2.65683e-06
2.57631e-06
2.50873e-06
2.44654e-06
2.38741e-06
2.32195e-06
2.25791e-06
2.20118e-06
2.16428e-06
2.12974e-06
2.07808e-06
2.07589e-06
2.38983e-06
3.31905e-06
5.22818e-06
8.54224e-06
1.08854e-05
1.15935e-05
1.17572e-05
1.17931e-05
1.18006e-05
1.18021e-05
1.18024e-05
1.18025e-05
1.18025e-05
1.18025e-05
1.18025e-05
1.18025e-05
1.18025e-05
7.23899e-06
5.9836e-06
5.701e-06
5.37678e-06
5.10065e-06
4.85476e-06
4.61845e-06
4.39309e-06
4.17946e-06
3.97973e-06
3.80895e-06
3.65146e-06
3.50401e-06
3.3662e-06
3.23579e-06
3.11205e-06
3.00878e-06
2.91171e-06
2.82007e-06
2.73329e-06
2.65164e-06
2.57492e-06
2.50253e-06
2.44133e-06
2.3852e-06
2.33198e-06
2.28273e-06
2.2231e-06
2.17172e-06
2.13723e-06
2.10651e-06
2.06321e-06
2.09477e-06
2.42833e-06
3.36817e-06
5.32511e-06
8.6338e-06
1.09191e-05
1.16006e-05
1.17586e-05
1.17934e-05
1.18007e-05
1.18021e-05
1.18024e-05
1.18025e-05
1.18025e-05
1.18025e-05
1.18025e-05
1.18025e-05
1.18025e-05
3.37066e-06
4.28875e-06
4.48446e-06
4.44442e-06
4.33212e-06
4.19807e-06
4.04993e-06
3.89509e-06
3.74856e-06
3.61331e-06
3.49858e-06
3.38517e-06
3.27533e-06
3.15929e-06
3.04863e-06
2.94521e-06
2.85834e-06
2.77545e-06
2.6965e-06
2.62139e-06
2.55094e-06
2.48421e-06
2.42102e-06
2.36608e-06
2.31667e-06
2.26935e-06
2.22579e-06
2.18147e-06
2.13763e-06
2.10616e-06
2.08078e-06
2.0489e-06
2.10818e-06
2.48009e-06
3.42688e-06
5.45479e-06
8.74959e-06
1.09607e-05
1.16093e-05
1.17603e-05
1.17937e-05
1.18007e-05
1.18021e-05
1.18024e-05
1.18025e-05
1.18025e-05
1.18025e-05
1.18025e-05
1.18025e-05
1.18025e-05
2.18232e-06
3.18452e-06
3.60456e-06
3.72423e-06
3.72666e-06
3.65931e-06
3.56895e-06
3.46821e-06
3.36385e-06
3.27037e-06
3.18663e-06
3.10272e-06
3.02086e-06
2.94092e-06
2.86133e-06
2.77787e-06
2.70549e-06
2.63634e-06
2.56996e-06
2.50682e-06
2.44729e-06
2.39051e-06
2.33606e-06
2.28728e-06
2.24469e-06
2.20403e-06
2.16583e-06
2.12773e-06
2.09843e-06
2.07368e-06
2.04619e-06
2.0361e-06
2.12781e-06
2.5433e-06
3.50191e-06
5.61556e-06
8.8861e-06
1.10087e-05
1.16193e-05
1.17622e-05
1.1794e-05
1.18008e-05
1.18022e-05
1.18024e-05
1.18025e-05
1.18025e-05
1.18025e-05
1.18025e-05
1.18025e-05
1.18025e-05
1.88054e-06
2.79636e-06
3.20453e-06
3.31146e-06
3.32825e-06
3.27488e-06
3.20328e-06
3.12574e-06
3.04637e-06
2.98065e-06
2.91875e-06
2.85658e-06
2.79499e-06
2.73463e-06
2.67638e-06
2.62246e-06
2.5628e-06
2.50557e-06
2.45045e-06
2.39771e-06
2.34735e-06
2.29906e-06
2.25294e-06
2.20946e-06
2.17313e-06
2.13909e-06
2.10697e-06
2.07531e-06
2.05235e-06
2.03353e-06
2.015e-06
2.02844e-06
2.15481e-06
2.61512e-06
3.59744e-06
5.80619e-06
9.04773e-06
1.10608e-05
1.16301e-05
1.17643e-05
1.17944e-05
1.18009e-05
1.18022e-05
1.18024e-05
1.18025e-05
1.18025e-05
1.18025e-05
1.18025e-05
1.18025e-05
1.18025e-05
1.93308e-06
2.87227e-06
3.20235e-06
3.1906e-06
3.11939e-06
3.04883e-06
2.96376e-06
2.88608e-06
2.81484e-06
2.75988e-06
2.70783e-06
2.65728e-06
2.6083e-06
2.56071e-06
2.51444e-06
2.47449e-06
2.43219e-06
2.38484e-06
2.33885e-06
2.29511e-06
2.25322e-06
2.21335e-06
2.17506e-06
2.1387e-06
2.1069e-06
2.07888e-06
2.05232e-06
2.0274e-06
2.01075e-06
1.9979e-06
1.99128e-06
2.03089e-06
2.19076e-06
2.69593e-06
3.71444e-06
6.02874e-06
9.23863e-06
1.11149e-05
1.16413e-05
1.17665e-05
1.17948e-05
1.18009e-05
1.18022e-05
1.18024e-05
1.18025e-05
1.18025e-05
1.18025e-05
1.18025e-05
1.18025e-05
1.18025e-05
2.64897e-06
3.68625e-06
3.74556e-06
3.38691e-06
3.14673e-06
2.97846e-06
2.85478e-06
2.75222e-06
2.66686e-06
2.5939e-06
2.5324e-06
2.47882e-06
2.43089e-06
2.38786e-06
2.35143e-06
2.3293e-06
2.30504e-06
2.26908e-06
2.23244e-06
2.19775e-06
2.16416e-06
2.13297e-06
2.1034e-06
2.07537e-06
2.04934e-06
2.02656e-06
2.00523e-06
1.98697e-06
1.97596e-06
1.97013e-06
1.97814e-06
2.05349e-06
2.23705e-06
2.78671e-06
3.85338e-06
6.27607e-06
9.43488e-06
1.11688e-05
1.16524e-05
1.17686e-05
1.17952e-05
1.1801e-05
1.18022e-05
1.18024e-05
1.18025e-05
1.18025e-05
1.18025e-05
1.18025e-05
1.18025e-05
1.18025e-05
7.6284e-06
5.94331e-06
5.00763e-06
4.07465e-06
3.47117e-06
3.12185e-06
2.89625e-06
2.7356e-06
2.62815e-06
2.53876e-06
2.45496e-06
2.3849e-06
2.3271e-06
2.2767e-06
2.23909e-06
2.2171e-06
2.19582e-06
2.16782e-06
2.14077e-06
2.11506e-06
2.09032e-06
2.06694e-06
2.04439e-06
2.02287e-06
2.00275e-06
1.98455e-06
1.96813e-06
1.95609e-06
1.95043e-06
1.95213e-06
1.97798e-06
2.07539e-06
2.29872e-06
2.88883e-06
4.02036e-06
6.54992e-06
9.63517e-06
1.12221e-05
1.16634e-05
1.17708e-05
1.17956e-05
1.18011e-05
1.18022e-05
1.18024e-05
1.18025e-05
1.18025e-05
1.18025e-05
1.18025e-05
1.18025e-05
1.18025e-05
1.0242e-05
8.24918e-06
6.90096e-06
5.5021e-06
4.36893e-06
3.63375e-06
3.17751e-06
2.90388e-06
2.71218e-06
2.57364e-06
2.47339e-06
2.39076e-06
2.32408e-06
2.26855e-06
2.22587e-06
2.17943e-06
2.14148e-06
2.11139e-06
2.085e-06
2.06174e-06
2.04031e-06
2.02065e-06
2.00248e-06
1.98552e-06
1.96968e-06
1.95556e-06
1.94392e-06
1.93778e-06
1.93745e-06
1.94988e-06
1.99963e-06
2.11389e-06
2.38433e-06
3.0121e-06
4.23538e-06
6.88132e-06
9.85053e-06
1.12781e-05
1.1675e-05
1.17731e-05
1.17961e-05
1.18011e-05
1.18022e-05
1.18024e-05
1.18025e-05
1.18025e-05
1.18025e-05
1.18025e-05
1.18025e-05
1.18025e-05
1.11308e-05
9.76502e-06
8.61816e-06
7.34258e-06
6.00679e-06
4.84626e-06
3.9796e-06
3.40649e-06
3.0377e-06
2.79293e-06
2.61748e-06
2.48154e-06
2.37993e-06
2.30102e-06
2.23764e-06
2.18637e-06
2.1442e-06
2.10913e-06
2.07923e-06
2.05321e-06
2.03042e-06
2.01019e-06
1.99223e-06
1.9763e-06
1.96212e-06
1.95014e-06
1.942e-06
1.94093e-06
1.94778e-06
1.97238e-06
2.03783e-06
2.17623e-06
2.5036e-06
3.16874e-06
4.52777e-06
7.28412e-06
1.00905e-05
1.13395e-05
1.1688e-05
1.17758e-05
1.17966e-05
1.18012e-05
1.18022e-05
1.18024e-05
1.18025e-05
1.18025e-05
1.18025e-05
1.18025e-05
1.18025e-05
1.18025e-05
1.14433e-05
1.06009e-05
9.73003e-06
8.81211e-06
7.7542e-06
6.63692e-06
5.54925e-06
4.61014e-06
3.89494e-06
3.3737e-06
3.01596e-06
2.76245e-06
2.58137e-06
2.44804e-06
2.34559e-06
2.2678e-06
2.20776e-06
2.15967e-06
2.12089e-06
2.089e-06
2.06239e-06
2.04031e-06
2.02128e-06
2.005e-06
1.99145e-06
1.98066e-06
1.97541e-06
1.97766e-06
1.99141e-06
2.02747e-06
2.10752e-06
2.27962e-06
2.66675e-06
3.3932e-06
4.93801e-06
7.79047e-06
1.03539e-05
1.14062e-05
1.17026e-05
1.17789e-05
1.17972e-05
1.18013e-05
1.18022e-05
1.18024e-05
1.18025e-05
1.18025e-05
1.18025e-05
1.18025e-05
1.18025e-05
1.18025e-05
1.15774e-05
1.10326e-05
1.04302e-05
9.74716e-06
9.00792e-06
8.17864e-06
7.28917e-06
6.35866e-06
5.45262e-06
4.64251e-06
3.98315e-06
3.48631e-06
3.12704e-06
2.86217e-06
2.67102e-06
2.53157e-06
2.4269e-06
2.34643e-06
2.28148e-06
2.2288e-06
2.18644e-06
2.15241e-06
2.12363e-06
2.10011e-06
2.08058e-06
2.06584e-06
2.05737e-06
2.0616e-06
2.08265e-06
2.12808e-06
2.22299e-06
2.44496e-06
2.89289e-06
3.72583e-06
5.5191e-06
8.39598e-06
1.06311e-05
1.1477e-05
1.17189e-05
1.17824e-05
1.17979e-05
1.18015e-05
1.18023e-05
1.18024e-05
1.18025e-05
1.18025e-05
1.18025e-05
1.18025e-05
1.18025e-05
1.18025e-05
1.16477e-05
1.1275e-05
1.08506e-05
1.03695e-05
9.81877e-06
9.20161e-06
8.55561e-06
7.82105e-06
7.06319e-06
6.28115e-06
5.52077e-06
4.8099e-06
4.19952e-06
3.71576e-06
3.35484e-06
3.08943e-06
2.89159e-06
2.74034e-06
2.62292e-06
2.52937e-06
2.45323e-06
2.39053e-06
2.33807e-06
2.29395e-06
2.25766e-06
2.2293e-06
2.21127e-06
2.21129e-06
2.23756e-06
2.29175e-06
2.40873e-06
2.68825e-06
3.22065e-06
4.23455e-06
6.32373e-06
9.07022e-06
1.09075e-05
1.15488e-05
1.17361e-05
1.17862e-05
1.17987e-05
1.18016e-05
1.18023e-05
1.18024e-05
1.18025e-05
1.18025e-05
1.18025e-05
1.18025e-05
1.18025e-05
1.18025e-05
1.16908e-05
1.14252e-05
1.11189e-05
1.07697e-05
1.03713e-05
9.91514e-06
9.39167e-06
8.8393e-06
8.24881e-06
7.60706e-06
6.95226e-06
6.27109e-06
5.59955e-06
4.98094e-06
4.45278e-06
4.02659e-06
3.68713e-06
3.41998e-06
3.20638e-06
3.03336e-06
2.89204e-06
2.77488e-06
2.67778e-06
2.59678e-06
2.53055e-06
2.47983e-06
2.44823e-06
2.4434e-06
2.47311e-06
2.53741e-06
2.69561e-06
3.06268e-06
3.72761e-06
5.02292e-06
7.36674e-06
9.83884e-06
1.1164e-05
1.16174e-05
1.17531e-05
1.17901e-05
1.17995e-05
1.18018e-05
1.18023e-05
1.18025e-05
1.18025e-05
1.18025e-05
1.18025e-05
1.18025e-05
1.18025e-05
1.18025e-05
1.17203e-05
1.15268e-05
1.13024e-05
1.10449e-05
1.07498e-05
1.04111e-05
1.0021e-05
9.58416e-06
9.08783e-06
8.58858e-06
8.03238e-06
7.42293e-06
6.80925e-06
6.20112e-06
5.62865e-06
5.11552e-06
4.67382e-06
4.30036e-06
3.98705e-06
3.72405e-06
3.50363e-06
3.31926e-06
3.16395e-06
3.03423e-06
2.92983e-06
2.85078e-06
2.80173e-06
2.79369e-06
2.83163e-06
2.92383e-06
3.16419e-06
3.65696e-06
4.54159e-06
6.20873e-06
8.57966e-06
1.05176e-05
1.13816e-05
1.16784e-05
1.17685e-05
1.17937e-05
1.18003e-05
1.1802e-05
1.18024e-05
1.18025e-05
1.18025e-05
1.18025e-05
1.18025e-05
1.18025e-05
1.18025e-05
1.18025e-05
1.17421e-05
1.16005e-05
1.14357e-05
1.12451e-05
1.10259e-05
1.0778e-05
1.04938e-05
1.01659e-05
9.78555e-06
9.34286e-06
8.84127e-06
8.34623e-06
7.81135e-06
7.23887e-06
6.67334e-06
6.13392e-06
5.64404e-06
5.20964e-06
4.82997e-06
4.50251e-06
4.22206e-06
3.98241e-06
3.77929e-06
3.61081e-06
3.47715e-06
3.3791e-06
3.32374e-06
3.32468e-06
3.3861e-06
3.5493e-06
3.93228e-06
4.61973e-06
5.83988e-06
7.76978e-06
9.80075e-06
1.10444e-05
1.15517e-05
1.17269e-05
1.17813e-05
1.17969e-05
1.18011e-05
1.18022e-05
1.18024e-05
1.18025e-05
1.18025e-05
1.18025e-05
1.18025e-05
1.18025e-05
1.18025e-05
1.18025e-05
1.17592e-05
1.16579e-05
1.15398e-05
1.14031e-05
1.12453e-05
1.10633e-05
1.08526e-05
1.06071e-05
1.03184e-05
9.97639e-06
9.59461e-06
9.14778e-06
8.66197e-06
8.15615e-06
7.61919e-06
7.08923e-06
6.59116e-06
6.13464e-06
5.7255e-06
5.36423e-06
5.05008e-06
4.7797e-06
4.55235e-06
4.36688e-06
4.22586e-06
4.13306e-06
4.10053e-06
4.13745e-06
4.26494e-06
4.58518e-06
5.17193e-06
6.14853e-06
7.64119e-06
9.39137e-06
1.07432e-05
1.14063e-05
1.16697e-05
1.17615e-05
1.17907e-05
1.17993e-05
1.18017e-05
1.18023e-05
1.18024e-05
1.18025e-05
1.18025e-05
1.18025e-05
1.18025e-05
1.18025e-05
1.18025e-05
1.18025e-05
1.17729e-05
1.17034e-05
1.16213e-05
1.15252e-05
1.1413e-05
1.12822e-05
1.11295e-05
1.09499e-05
1.07473e-05
1.05086e-05
1.02225e-05
9.87825e-06
9.46892e-06
8.99633e-06
8.51553e-06
8.0393e-06
7.57048e-06
7.12686e-06
6.72316e-06
6.36339e-06
6.04877e-06
5.78047e-06
5.5599e-06
5.39012e-06
5.27744e-06
5.23157e-06
5.26264e-06
5.38442e-06
5.67977e-06
6.19602e-06
7.01124e-06
8.16398e-06
9.5144e-06
1.06668e-05
1.13229e-05
1.16229e-05
1.17413e-05
1.17832e-05
1.17968e-05
1.18009e-05
1.18021e-05
1.18024e-05
1.18025e-05
1.18025e-05
1.18025e-05
1.18025e-05
1.18025e-05
1.18025e-05
1.18025e-05
1.18025e-05
1.17837e-05
1.17385e-05
1.16841e-05
1.16189e-05
1.15418e-05
1.14532e-05
1.13508e-05
1.12319e-05
1.10925e-05
1.09268e-05
1.07271e-05
1.04838e-05
1.0192e-05
9.85121e-06
9.45942e-06
9.03356e-06
8.62215e-06
8.23926e-06
7.88169e-06
7.55936e-06
7.27921e-06
7.0537e-06
6.88232e-06
6.77157e-06
6.73339e-06
6.76837e-06
6.9012e-06
7.18805e-06
7.64855e-06
8.30147e-06
9.13919e-06
1.00962e-05
1.08723e-05
1.1365e-05
1.16206e-05
1.17341e-05
1.17789e-05
1.17949e-05
1.18002e-05
1.18018e-05
1.18023e-05
1.18024e-05
1.18025e-05
1.18025e-05
1.18025e-05
1.18025e-05
1.18025e-05
1.18025e-05
1.18025e-05
1.18025e-05
1.17924e-05
1.17664e-05
1.17335e-05
1.16932e-05
1.1645e-05
1.15885e-05
1.15228e-05
1.14466e-05
1.13577e-05
1.1253e-05
1.11294e-05
1.09835e-05
1.08062e-05
1.05928e-05
1.03429e-05
1.00619e-05
9.76338e-06
9.46579e-06
9.18418e-06
8.93125e-06
8.72975e-06
8.58274e-06
8.49089e-06
8.47193e-06
8.5105e-06
8.63892e-06
8.88009e-06
9.26264e-06
9.74791e-06
1.029e-05
1.08084e-05
1.12266e-05
1.15086e-05
1.16691e-05
1.17478e-05
1.17819e-05
1.17953e-05
1.18002e-05
1.18018e-05
1.18023e-05
1.18024e-05
1.18025e-05
1.18025e-05
1.18025e-05
1.18025e-05
1.18025e-05
1.18025e-05
1.18025e-05
1.18025e-05
1.18025e-05
1.17992e-05
1.1788e-05
1.17708e-05
1.17488e-05
1.1722e-05
1.16904e-05
1.16536e-05
1.16114e-05
1.15644e-05
1.15106e-05
1.14484e-05
1.1375e-05
1.12871e-05
1.1182e-05
1.10584e-05
1.09187e-05
1.07686e-05
1.06179e-05
1.04773e-05
1.03566e-05
1.02654e-05
1.02124e-05
1.0202e-05
1.02305e-05
1.03235e-05
1.04818e-05
1.06892e-05
1.09258e-05
1.11664e-05
1.13821e-05
1.15517e-05
1.16682e-05
1.17377e-05
1.17741e-05
1.17911e-05
1.17983e-05
1.1801e-05
1.1802e-05
1.18023e-05
1.18024e-05
1.18025e-05
1.18025e-05
1.18025e-05
1.18025e-05
1.18025e-05
1.18025e-05
1.18025e-05
1.18025e-05
1.18025e-05
1.18025e-05
1.18024e-05
1.17998e-05
1.17951e-05
1.17881e-05
1.17789e-05
1.17677e-05
1.17552e-05
1.17421e-05
1.17273e-05
1.17108e-05
1.16926e-05
1.16721e-05
1.16486e-05
1.16212e-05
1.15898e-05
1.15549e-05
1.15189e-05
1.14843e-05
1.14544e-05
1.1432e-05
1.14199e-05
1.14203e-05
1.14344e-05
1.14629e-05
1.15051e-05
1.15566e-05
1.16117e-05
1.16644e-05
1.17098e-05
1.17449e-05
1.17697e-05
1.17853e-05
1.17941e-05
1.17986e-05
1.1801e-05
1.1802e-05
1.18024e-05
1.18024e-05
1.18025e-05
1.18025e-05
1.18025e-05
1.18025e-05
1.18025e-05
1.18025e-05
1.18025e-05
1.18025e-05
1.18025e-05
1.18025e-05
1.18025e-05
1.18025e-05
)
;

boundaryField
{
    AXIS
    {
        type            empty;
    }
    OUTLET
    {
        type            calculated;
        value           uniform 1.18025e-05;
    }
    COFLOW
    {
        type            calculated;
        value           uniform 1.18025e-05;
    }
    PILOT
    {
        type            calculated;
        value           uniform 1.56801e-06;
    }
    FUEL
    {
        type            calculated;
        value           uniform 1.04958e-05;
    }
    WALL
    {
        type            calculated;
        value           nonuniform List<scalar> 
50
(
1.18024e-05
1.17998e-05
1.17951e-05
1.17881e-05
1.17789e-05
1.17677e-05
1.17552e-05
1.17421e-05
1.17273e-05
1.17108e-05
1.16926e-05
1.16721e-05
1.16486e-05
1.16212e-05
1.15898e-05
1.15549e-05
1.15189e-05
1.14843e-05
1.14544e-05
1.1432e-05
1.14199e-05
1.14203e-05
1.14344e-05
1.14629e-05
1.15051e-05
1.15566e-05
1.16117e-05
1.16644e-05
1.17098e-05
1.17449e-05
1.17697e-05
1.17853e-05
1.17941e-05
1.17986e-05
1.1801e-05
1.1802e-05
1.18024e-05
1.18024e-05
1.18025e-05
1.18025e-05
1.18025e-05
1.18025e-05
1.18025e-05
1.18025e-05
1.18025e-05
1.18025e-05
1.18025e-05
1.18025e-05
1.18025e-05
1.18025e-05
)
;
    }
    front
    {
        type            wedge;
    }
    back
    {
        type            wedge;
    }
}


// ************************************************************************* //
