/*--------------------------------*- C++ -*----------------------------------*\
| =========                 |                                                 |
| \\      /  F ield         | OpenFOAM: The Open Source CFD Toolbox           |
|  \\    /   O peration     | Version:  2.4.x                                 |
|   \\  /    A nd           | Web:      www.OpenFOAM.org                      |
|    \\/     M anipulation  |                                                 |
\*---------------------------------------------------------------------------*/
FoamFile
{
    version     2.0;
    format      ascii;
    class       volVectorField;
    location    "0.05";
    object      U;
}
// * * * * * * * * * * * * * * * * * * * * * * * * * * * * * * * * * * * * * //

dimensions      [0 1 -1 0 0 0 0];

internalField   nonuniform List<vector> 
1250
(
(10.4548 -0.035512 -7.34263e-15)
(11.9036 0.0625068 -4.079e-14)
(12.6118 0.128697 -8.01362e-14)
(12.9528 0.156831 -1.72156e-13)
(13.0633 0.147639 -1.3366e-13)
(13.0231 0.166599 9.59958e-15)
(12.917 0.112062 1.1666e-13)
(12.7846 0.144618 1.02386e-13)
(12.6376 0.105209 2.17588e-13)
(12.5278 0.140704 3.14224e-14)
(12.3772 0.134475 1.41408e-13)
(12.2319 0.0876456 3.19188e-13)
(12.0834 0.115528 4.90266e-13)
(11.9457 0.074697 3.21176e-13)
(11.817 0.098749 5.70776e-13)
(11.6942 0.0642442 1.72442e-12)
(11.5676 0.0832742 3.47947e-13)
(11.4351 0.0553785 1.57664e-12)
(11.3021 0.0705802 -3.76424e-12)
(11.1768 0.0661661 2.27295e-11)
(11.0751 0.0444036 8.31212e-12)
(10.9656 0.0579462 2.36102e-12)
(10.8598 0.049783 2.11578e-12)
(10.7314 0.0465701 1.10084e-12)
(10.6025 0.0478765 2.0355e-12)
(10.4714 0.0452471 2.30765e-12)
(10.3219 0.0445176 2.17986e-12)
(10.1494 0.0467975 1.7018e-12)
(9.91621 0.0499956 1.66112e-12)
(9.55335 0.0608477 4.87426e-13)
(9.04288 0.0777501 1.53617e-12)
(8.39129 0.106681 1.56788e-12)
(7.10604 0.107075 5.18532e-13)
(5.43535 0.0884909 3.79691e-13)
(3.68376 0.0532971 7.53908e-13)
(2.50324 0.0285758 2.05452e-12)
(2.07219 0.0150635 -1.06596e-11)
(1.81136 0.00781124 -3.4432e-12)
(1.6972 0.00465863 2.62982e-11)
(1.64253 0.00323982 5.79738e-12)
(1.60546 0.00228942 2.71606e-12)
(1.58022 0.00158847 1.49466e-12)
(1.56286 0.00110231 1.85792e-12)
(1.54978 0.000779175 -2.2317e-11)
(1.5408 0.000553822 -4.06522e-12)
(1.53364 0.000400777 -1.64983e-12)
(1.52874 0.000298249 -3.94622e-14)
(1.52441 0.000213868 5.69921e-13)
(1.52184 0.000180574 -2.90956e-12)
(1.5186 8.59764e-05 2.29273e-11)
(10.5667 -0.0966171 -2.00578e-14)
(12.0692 0.193109 -1.21071e-13)
(12.6782 0.356124 -2.34282e-13)
(12.9547 0.427265 -4.91884e-13)
(13.02 0.462355 -2.88449e-13)
(12.9588 0.436417 8.40048e-14)
(12.8308 0.40103 2.77791e-13)
(12.6807 0.378969 2.95066e-13)
(12.5493 0.388677 4.64368e-13)
(12.4297 0.368922 5.41271e-14)
(12.2882 0.340165 4.55278e-13)
(12.1383 0.317847 7.25885e-13)
(11.9919 0.296784 1.43284e-12)
(11.8579 0.270473 6.63905e-13)
(11.7308 0.252956 1.86128e-12)
(11.6133 0.232635 3.75076e-12)
(11.4853 0.213271 7.92583e-13)
(11.3514 0.20251 2.94612e-12)
(11.2244 0.182269 -8.11935e-12)
(11.1111 0.167069 3.36992e-11)
(11.004 0.16326 1.24174e-11)
(10.8991 0.148923 5.37358e-12)
(10.7991 0.140864 4.66053e-12)
(10.6745 0.136764 2.26129e-12)
(10.547 0.136309 4.84261e-12)
(10.4179 0.13334 4.94311e-12)
(10.2716 0.132084 4.46058e-12)
(10.1028 0.133854 3.67644e-12)
(9.87327 0.141278 3.71538e-12)
(9.51981 0.156463 1.23325e-12)
(9.0177 0.197373 4.59921e-12)
(8.38002 0.271059 4.50991e-12)
(7.1227 0.294682 1.4284e-12)
(5.46478 0.223841 1.0832e-12)
(3.72124 0.134818 2.14787e-12)
(2.51968 0.0740648 5.59732e-12)
(2.08117 0.0409083 -1.86026e-11)
(1.81448 0.0205218 -8.5233e-12)
(1.69786 0.0119348 4.58655e-11)
(1.64266 0.00828966 1.52174e-11)
(1.60509 0.00582245 7.5135e-12)
(1.5797 0.0040454 4.17861e-12)
(1.56218 0.00280688 4.93745e-12)
(1.54899 0.00198397 -3.14964e-11)
(1.53993 0.0014123 -1.06919e-11)
(1.5327 0.0010218 -4.53864e-12)
(1.52775 0.000760425 -3.73078e-14)
(1.52339 0.000559415 1.50234e-12)
(1.52079 0.000455711 -8.02141e-12)
(1.51753 0.000270999 2.19712e-11)
(10.7111 -0.15451 -3.09787e-14)
(12.289 0.438218 -2.41946e-13)
(12.7408 0.656016 -4.48875e-13)
(12.8875 0.7256 -9.88234e-13)
(12.8645 0.720029 -5.38453e-13)
(12.7589 0.685221 5.04463e-13)
(12.5953 0.656741 6.91116e-13)
(12.4523 0.631023 5.31384e-13)
(12.3268 0.60988 8.75608e-13)
(12.2074 0.579739 -6.00155e-14)
(12.0715 0.539324 1.11399e-12)
(11.923 0.494294 1.68634e-12)
(11.7882 0.460982 2.69807e-12)
(11.6621 0.422914 1.12814e-12)
(11.5454 0.395365 4.58789e-12)
(11.436 0.363591 7.35535e-12)
(11.3134 0.331944 2.14139e-13)
(11.1877 0.301477 3.55908e-12)
(11.0726 0.281101 -7.77867e-12)
(10.9655 0.262032 2.62659e-11)
(10.8634 0.244172 1.03639e-11)
(10.766 0.230841 5.08459e-12)
(10.6711 0.214088 7.66145e-12)
(10.5537 0.20189 3.90437e-12)
(10.4308 0.203005 1.01802e-11)
(10.3046 0.201589 9.01344e-12)
(10.1636 0.198924 7.72204e-12)
(10.0004 0.203043 6.16371e-12)
(9.77435 0.215268 6.1128e-12)
(9.43204 0.244388 1.71581e-12)
(8.93609 0.310166 9.26431e-12)
(8.30428 0.422449 7.79098e-12)
(7.06556 0.452533 2.29688e-12)
(5.43858 0.348354 1.83348e-12)
(3.71882 0.213156 3.68537e-12)
(2.52595 0.116943 8.37732e-12)
(2.08473 0.0650445 -1.4287e-11)
(1.8168 0.0332982 -9.88345e-12)
(1.69903 0.0192483 4.73164e-11)
(1.64365 0.0133067 2.10079e-11)
(1.60589 0.00929651 1.13749e-11)
(1.58048 0.00645521 6.54858e-12)
(1.56296 0.00447783 6.99975e-12)
(1.54977 0.00316408 -2.38603e-11)
(1.54072 0.00225421 -1.52781e-11)
(1.53349 0.00163038 -6.70636e-12)
(1.52854 0.0012126 4.22645e-13)
(1.52419 0.000886859 2.34765e-12)
(1.52159 0.000727709 -1.30846e-11)
(1.51837 0.000415704 2.1358e-11)
(10.6624 0.116642 -4.35358e-14)
(12.5152 0.917842 -4.96263e-13)
(12.6662 1.09454 -8.60667e-13)
(12.594 1.08849 -2.12784e-12)
(12.4632 1.05864 -1.21891e-13)
(12.3106 1.00174 2.09021e-12)
(12.161 0.952287 1.24528e-12)
(12.0304 0.906208 7.40491e-13)
(11.9176 0.85359 1.30764e-12)
(11.8161 0.796991 -4.89946e-13)
(11.7001 0.738254 2.8654e-12)
(11.5723 0.675151 3.3965e-12)
(11.4583 0.626027 4.33877e-12)
(11.3517 0.577179 1.69905e-12)
(11.2533 0.535624 1.04189e-11)
(11.1602 0.493782 1.09722e-11)
(11.0514 0.450334 -4.20729e-12)
(10.9398 0.412691 3.00649e-12)
(10.8388 0.383931 -5.04946e-12)
(10.7437 0.358141 1.17425e-11)
(10.6517 0.33588 -1.04114e-12)
(10.5637 0.315196 3.12316e-12)
(10.4773 0.292722 1.26421e-11)
(10.3704 0.273784 5.82635e-12)
(10.2565 0.271078 1.88428e-11)
(10.1344 0.273792 1.22937e-11)
(9.9997 0.275679 9.99618e-12)
(9.84406 0.280075 7.88168e-12)
(9.62212 0.297683 7.63748e-12)
(9.29169 0.336587 1.94441e-12)
(8.80518 0.427716 1.77501e-11)
(8.16578 0.5793 1.10037e-11)
(6.94636 0.622545 4.14642e-12)
(5.36058 0.471441 2.73494e-12)
(3.68554 0.289088 5.23332e-12)
(2.51769 0.161418 1.03561e-11)
(2.08138 0.0901295 -8.89152e-12)
(1.81719 0.0469187 -7.58946e-12)
(1.69948 0.0272188 4.33817e-11)
(1.64438 0.0186948 2.34847e-11)
(1.60672 0.0130262 1.38951e-11)
(1.58147 0.00903059 8.35864e-12)
(1.56409 0.0062601 8.12176e-12)
(1.55099 0.00442293 -1.07522e-11)
(1.54201 0.00315111 -1.91492e-11)
(1.53483 0.00227872 -7.71849e-12)
(1.52992 0.00169356 1.95036e-12)
(1.52561 0.0012399 2.85659e-12)
(1.52304 0.00101134 -1.85201e-11)
(1.51987 0.000573738 1.36225e-11)
(10.006 0.754109 -7.56457e-14)
(12.1697 1.79196 -1.34378e-12)
(12.0001 1.6715 -1.36552e-12)
(11.6883 1.51185 -1.06175e-12)
(11.5869 1.43018 -9.39618e-13)
(11.4776 1.32544 4.44393e-13)
(11.3923 1.22562 8.6933e-13)
(11.3297 1.13902 6.94638e-13)
(11.2815 1.06198 1.67688e-12)
(11.2293 0.984583 -1.16811e-12)
(11.1578 0.90417 7.52181e-12)
(11.0713 0.829228 5.79948e-12)
(10.9933 0.766717 5.98033e-12)
(10.919 0.707962 3.80295e-12)
(10.8492 0.657546 6.61205e-12)
(10.7804 0.605838 9.77946e-12)
(10.6939 0.552593 2.53904e-12)
(10.6041 0.508702 4.96376e-12)
(10.5228 0.473901 -2.80476e-12)
(10.4442 0.443053 9.00555e-12)
(10.3669 0.415005 5.3245e-12)
(10.2919 0.389125 6.57393e-12)
(10.2174 0.361092 -5.16156e-13)
(10.1238 0.336823 9.71145e-12)
(10.0227 0.328796 1.27935e-11)
(9.90939 0.330621 1.15803e-11)
(9.78203 0.340166 1.06732e-11)
(9.63389 0.351084 8.56317e-12)
(9.41776 0.373352 7.95796e-12)
(9.10092 0.422408 3.25671e-12)
(8.62479 0.540357 8.81986e-12)
(7.98003 0.721984 1.2492e-11)
(6.7748 0.781428 1.01287e-11)
(5.23843 0.584996 3.91801e-12)
(3.62926 0.349422 4.95558e-12)
(2.49738 0.204518 1.14427e-11)
(2.07291 0.112451 -8.93717e-12)
(1.81623 0.0595887 -1.0479e-11)
(1.69924 0.0350849 3.78894e-11)
(1.64474 0.0239471 2.3501e-11)
(1.60741 0.016642 1.50625e-11)
(1.58246 0.0115159 9.49165e-12)
(1.56531 0.00797808 8.71493e-12)
(1.55239 0.0056364 -3.86917e-12)
(1.54351 0.00401577 -1.17799e-11)
(1.53643 0.00290366 -7.15591e-12)
(1.53158 0.00215659 -6.00631e-12)
(1.52733 0.00157778 2.73598e-12)
(1.5248 0.00128433 -2.48804e-11)
(1.5217 0.000729606 2.3472e-12)
(7.58791 0.409751 -3.43606e-13)
(8.47278 2.30937 -3.52157e-12)
(9.42375 1.88039 -2.14917e-12)
(9.71649 1.76304 -1.90572e-12)
(9.99745 1.61247 -1.35977e-12)
(10.1488 1.48511 -1.04111e-13)
(10.262 1.38032 7.88465e-13)
(10.3443 1.28628 8.42369e-13)
(10.4098 1.2002 1.98291e-12)
(10.437 1.10747 -8.30848e-13)
(10.4393 1.01943 5.21369e-12)
(10.4155 0.938981 6.3295e-12)
(10.3909 0.873295 7.07877e-12)
(10.3653 0.814176 5.44825e-12)
(10.3357 0.759152 6.28294e-12)
(10.2987 0.697723 9.20616e-12)
(10.2422 0.636584 4.51281e-12)
(10.1814 0.589187 6.12032e-12)
(10.1253 0.549701 -2.17301e-12)
(10.0685 0.514612 1.46236e-11)
(10.0105 0.482052 8.79701e-12)
(9.9524 0.452068 7.99054e-12)
(9.89315 0.420279 4.48981e-12)
(9.81622 0.391891 6.06209e-12)
(9.73007 0.381052 9.77977e-12)
(9.62886 0.379891 1.05605e-11)
(9.51346 0.3915 1.05885e-11)
(9.37269 0.412573 8.14203e-12)
(9.16239 0.444309 7.20078e-12)
(8.86152 0.503707 3.67985e-12)
(8.39481 0.64669 5.18426e-12)
(7.73117 0.858533 1.63089e-11)
(6.55448 0.890664 8.91723e-12)
(5.07566 0.683298 4.37518e-12)
(3.55052 0.398915 4.89059e-12)
(2.4615 0.243233 9.38021e-12)
(2.05852 0.131434 -7.97002e-12)
(1.8137 0.0714218 -1.05136e-11)
(1.69814 0.0430326 3.163e-11)
(1.6447 0.0291659 2.1832e-11)
(1.60796 0.0202128 1.50533e-11)
(1.58344 0.0139614 9.93557e-12)
(1.56663 0.0096669 8.92843e-12)
(1.55394 0.00683032 -4.53092e-13)
(1.54522 0.0048667 -7.35574e-12)
(1.53826 0.00351876 -6.29442e-12)
(1.53349 0.00261191 -3.86494e-12)
(1.52933 0.00190904 2.72724e-12)
(1.52685 0.00155008 -2.5099e-11)
(1.52382 0.000878754 -3.72346e-12)
(4.00852 -0.651613 -1.73137e-12)
(5.18665 0.379124 -3.78239e-12)
(6.56599 1.00478 -2.59227e-12)
(7.43707 1.36514 -3.01025e-12)
(8.08695 1.42463 -1.16099e-12)
(8.5306 1.41314 6.97846e-13)
(8.87829 1.3689 1.5698e-12)
(9.1365 1.30668 1.50983e-12)
(9.34122 1.23515 2.46704e-12)
(9.47976 1.14752 -3.84828e-13)
(9.57052 1.06201 8.0756e-12)
(9.63076 0.992364 7.68357e-12)
(9.67435 0.933227 8.27735e-12)
(9.70216 0.87875 6.42067e-12)
(9.71898 0.826035 8.34397e-12)
(9.72161 0.76337 9.85952e-12)
(9.70333 0.697656 3.89137e-12)
(9.6781 0.648457 5.74885e-12)
(9.65226 0.606563 -1.64947e-12)
(9.62167 0.568667 1.52543e-11)
(9.58715 0.533238 8.42064e-12)
(9.54954 0.501124 7.48979e-12)
(9.50872 0.467761 7.88794e-12)
(9.45129 0.436868 5.72262e-12)
(9.38226 0.423993 9.88912e-12)
(9.29516 0.422691 1.0605e-11)
(9.19417 0.434357 1.0081e-11)
(9.06345 0.460495 6.29045e-12)
(8.8601 0.503285 5.45929e-12)
(8.5747 0.581603 3.00429e-12)
(8.11554 0.747525 4.91354e-12)
(7.43568 0.97339 1.48153e-11)
(6.29625 0.978279 7.25145e-12)
(4.88498 0.766093 4.43294e-12)
(3.44699 0.448251 4.98534e-12)
(2.41107 0.278237 6.78307e-12)
(2.03895 0.147658 -6.27322e-12)
(1.80965 0.0821815 -9.04551e-12)
(1.69616 0.0508837 2.55182e-11)
(1.64429 0.0342293 1.90691e-11)
(1.6084 0.0236583 1.41279e-11)
(1.58445 0.0163169 9.75693e-12)
(1.56807 0.0112934 8.82568e-12)
(1.55566 0.00798203 8.09513e-13)
(1.54713 0.00568816 -4.73644e-12)
(1.54032 0.00411267 -5.41876e-12)
(1.53565 0.00305114 -1.29814e-12)
(1.53158 0.00222705 2.48672e-12)
(1.52918 0.00180405 -2.12192e-11)
(1.52623 0.00102193 -6.34944e-12)
(2.80919 -2.40301 -5.1597e-12)
(2.81349 -0.865537 -3.30906e-12)
(4.13179 0.12076 -2.48543e-12)
(5.25699 0.743667 -4.70865e-12)
(6.16901 1.02152 8.13153e-13)
(6.84678 1.15817 3.80879e-12)
(7.39645 1.20523 3.37011e-12)
(7.82193 1.205 2.63861e-12)
(8.16262 1.17261 3.1356e-12)
(8.41366 1.10996 7.93126e-13)
(8.60077 1.04649 5.74891e-12)
(8.74652 0.991477 8.97048e-12)
(8.86271 0.940564 9.51364e-12)
(8.95381 0.891258 6.90262e-12)
(9.02325 0.846179 1.37912e-11)
(9.06711 0.792244 1.03012e-11)
(9.0899 0.732213 -9.53005e-16)
(9.10512 0.683301 4.35744e-12)
(9.11333 0.641684 -6.99222e-13)
(9.11242 0.603546 1.04651e-11)
(9.10472 0.567789 4.57146e-12)
(9.0904 0.535409 6.30606e-12)
(9.07025 0.502891 1.2051e-11)
(9.03423 0.47077 5.68847e-12)
(8.98385 0.45617 1.37861e-11)
(8.91326 0.455802 1.13956e-11)
(8.82757 0.469714 8.44425e-12)
(8.70733 0.49985 2.12844e-12)
(8.51576 0.551489 2.93973e-12)
(8.24521 0.653373 1.83403e-12)
(7.78797 0.839636 7.91609e-12)
(7.10249 1.06278 1.1204e-11)
(6.00444 1.04166 4.87178e-12)
(4.66668 0.828225 4.3587e-12)
(3.32382 0.492164 5.0475e-12)
(2.3586 0.309741 3.93995e-12)
(2.01653 0.168981 -3.59013e-12)
(1.8044 0.0922914 -6.49631e-12)
(1.6935 0.0585192 1.91082e-11)
(1.64347 0.0390829 1.56359e-11)
(1.60876 0.0269503 1.2576e-11)
(1.5855 0.0185722 9.07125e-12)
(1.56962 0.0128521 8.44215e-12)
(1.55754 0.00908862 5.20896e-13)
(1.54924 0.00647832 -3.32142e-12)
(1.54261 0.00468412 -4.58065e-12)
(1.53806 0.00347336 1.68189e-12)
(1.5341 0.00253113 1.82684e-12)
(1.53177 0.00204615 -1.4822e-11)
(1.52892 0.00115906 -6.85607e-12)
(2.66937 -1.45367 -4.30239e-12)
(1.60179 -1.13512 -2.14249e-12)
(2.39673 -0.575019 -1.89293e-12)
(3.50031 0.0889359 -3.03076e-12)
(4.48922 0.523069 1.34094e-12)
(5.29067 0.794304 4.23736e-12)
(5.96444 0.938828 5.30867e-12)
(6.51156 1.0087 3.60241e-12)
(6.95868 1.02443 3.92869e-12)
(7.30682 0.99936 2.03399e-12)
(7.5837 0.968621 8.40139e-12)
(7.80916 0.936818 1.33891e-11)
(7.99457 0.902964 1.07634e-11)
(8.14708 0.866888 7.77337e-12)
(8.26967 0.830494 1.10918e-11)
(8.35788 0.787615 5.46943e-12)
(8.42148 0.739402 2.55564e-12)
(8.477 0.695037 4.65651e-12)
(8.52159 0.656144 5.51045e-13)
(8.55221 0.620036 1.12171e-11)
(8.57288 0.585903 7.33647e-12)
(8.58343 0.554658 8.22522e-12)
(8.58527 0.524524 4.65491e-12)
(8.57143 0.493138 5.03568e-12)
(8.54038 0.477558 8.9254e-12)
(8.48885 0.47823 1.06787e-11)
(8.41913 0.495186 3.56521e-12)
(8.31045 0.53082 -5.83415e-12)
(8.13344 0.591923 5.24957e-13)
(7.87504 0.714466 1.50092e-12)
(7.41837 0.917091 3.03823e-12)
(6.73743 1.12882 7.70988e-12)
(5.68713 1.08332 4.80812e-12)
(4.43068 0.871881 4.56431e-12)
(3.18899 0.528343 4.19429e-12)
(2.30413 0.336502 2.96939e-12)
(1.99096 0.193424 -2.91549e-12)
(1.79564 0.101908 -5.87705e-12)
(1.69018 0.065699 1.20229e-11)
(1.64229 0.0436499 1.19698e-11)
(1.60907 0.0300457 1.06944e-11)
(1.58661 0.0207061 8.0147e-12)
(1.57129 0.0143306 7.79427e-12)
(1.5596 0.0101419 -1.04508e-12)
(1.55155 0.00723165 -2.6601e-12)
(1.54511 0.00522902 -3.68343e-12)
(1.54069 0.00387563 -3.31993e-13)
(1.53686 0.00281915 6.09398e-13)
(1.53461 0.00227474 -1.10498e-11)
(1.53186 0.00128894 -6.44157e-12)
(2.14488 -1.04405 -4.22611e-13)
(1.22643 -0.974796 -8.10984e-13)
(1.52425 -0.813763 -1.06964e-12)
(2.27344 -0.36194 -1.7586e-12)
(3.1655 0.0767707 1.23033e-13)
(3.96451 0.410535 1.69781e-12)
(4.67611 0.625542 2.80379e-12)
(5.28322 0.758979 3.57125e-12)
(5.79616 0.827176 4.95391e-12)
(6.21618 0.846338 3.85661e-12)
(6.56538 0.85052 6.20606e-12)
(6.85652 0.846158 9.46805e-12)
(7.10182 0.832696 9.73244e-12)
(7.30955 0.812426 7.74518e-12)
(7.48102 0.785214 9.63292e-12)
(7.60906 0.750535 7.1902e-12)
(7.71314 0.716138 4.68324e-12)
(7.80862 0.683896 5.34505e-12)
(7.88923 0.650513 2.62864e-12)
(7.95162 0.617898 6.7112e-12)
(8.00105 0.58624 8.87563e-12)
(8.03723 0.55667 9.67728e-12)
(8.06183 0.52918 7.22396e-12)
(8.07057 0.501252 5.85167e-12)
(8.05845 0.486819 7.47762e-12)
(8.02861 0.489114 9.34671e-12)
(7.97497 0.510394 3.90654e-12)
(7.87931 0.551465 -4.59691e-12)
(7.71878 0.62203 8.35381e-13)
(7.46922 0.763859 1.99403e-12)
(7.0164 0.974565 -7.95147e-13)
(6.35001 1.17164 5.58599e-12)
(5.35822 1.10971 4.95668e-12)
(4.18807 0.899366 4.99686e-12)
(3.0451 0.555524 3.1959e-12)
(2.24746 0.358103 1.79725e-12)
(1.96277 0.21103 3.09677e-13)
(1.78487 0.110597 -5.01892e-12)
(1.68628 0.0722951 8.99325e-12)
(1.64082 0.0478801 8.6583e-12)
(1.60933 0.0329162 8.76161e-12)
(1.58776 0.0227047 6.7167e-12)
(1.57307 0.0157211 6.86831e-12)
(1.56179 0.011137 1.74844e-12)
(1.55401 0.00794481 -2.29377e-12)
(1.54779 0.00574505 -2.79065e-12)
(1.54352 0.00425616 -1.5612e-12)
(1.53981 0.00308991 -7.98866e-13)
(1.53766 0.00248892 -9.08961e-12)
(1.53501 0.0014113 -5.65712e-12)
(1.08235 -0.0782265 -3.21055e-14)
(1.29364 -0.424256 -5.13968e-14)
(1.25188 -0.598995 -3.59861e-13)
(1.57839 -0.476243 -8.83958e-13)
(2.20095 -0.20816 -6.63383e-13)
(2.88161 0.0879125 -7.58183e-13)
(3.5514 0.319931 1.31139e-13)
(4.16086 0.490091 4.21254e-12)
(4.69284 0.600379 7.33156e-12)
(5.15203 0.66429 6.06993e-12)
(5.54775 0.704187 6.17095e-12)
(5.88869 0.724954 7.23147e-12)
(6.18098 0.731782 8.39194e-12)
(6.433 0.725567 6.9357e-12)
(6.6448 0.703402 8.89429e-12)
(6.81456 0.673889 7.16217e-12)
(6.96141 0.658453 5.92971e-12)
(7.09479 0.642524 5.95479e-12)
(7.20923 0.617783 4.55226e-12)
(7.30304 0.59139 4.40076e-12)
(7.38137 0.564387 1.24267e-11)
(7.44395 0.538618 1.11836e-11)
(7.49278 0.515408 8.22683e-12)
(7.5245 0.493271 6.67943e-12)
(7.53407 0.483153 7.43664e-12)
(7.52355 0.488265 8.08987e-12)
(7.4889 0.514152 1.20313e-11)
(7.4084 0.561674 3.94472e-12)
(7.26447 0.642943 3.42349e-12)
(7.02074 0.801035 2.82812e-12)
(6.57747 1.01188 3.6896e-12)
(5.94242 1.19544 4.84847e-12)
(5.01536 1.12553 5.2952e-12)
(3.93476 0.914088 5.70649e-12)
(2.89058 0.574516 2.0656e-12)
(2.19223 0.376996 4.47663e-13)
(1.93326 0.223121 2.94197e-12)
(1.77277 0.118473 -4.53005e-12)
(1.68193 0.0784494 2.97669e-12)
(1.63909 0.0518534 5.54094e-12)
(1.60952 0.0356249 6.92751e-12)
(1.58895 0.0246131 5.23028e-12)
(1.57493 0.0170569 5.84856e-12)
(1.5641 0.0120981 3.39425e-12)
(1.55663 0.00863561 -2.51926e-12)
(1.55064 0.00624489 -1.87322e-12)
(1.54652 0.00462434 -2.37264e-12)
(1.54296 0.00335016 -2.31965e-12)
(1.54091 0.00269387 -8.294e-12)
(1.53837 0.00152898 -4.67938e-12)
(0.964233 -0.0191736 4.30737e-14)
(1.1735 -0.181119 2.76087e-13)
(1.14964 -0.267405 2.61632e-14)
(1.26026 -0.300959 -4.70454e-13)
(1.56551 -0.259804 -1.42517e-12)
(2.03848 -0.105326 -3.93709e-12)
(2.58555 0.0718082 -2.66007e-12)
(3.13139 0.231793 9.08779e-12)
(3.6447 0.357226 1.29046e-11)
(4.11182 0.45167 8.32132e-12)
(4.52382 0.519101 6.70796e-12)
(4.89083 0.563852 5.51235e-12)
(5.21393 0.588919 7.42277e-12)
(5.49583 0.597496 5.38278e-12)
(5.73912 0.589174 9.21667e-12)
(5.9522 0.579376 5.76911e-12)
(6.14053 0.576632 6.74222e-12)
(6.30724 0.570048 6.4425e-12)
(6.45323 0.554293 6.02273e-12)
(6.57839 0.53617 3.68516e-12)
(6.68632 0.516701 7.88282e-12)
(6.7765 0.497852 1.16916e-11)
(6.8509 0.481483 7.49559e-12)
(6.90638 0.466998 7.21211e-12)
(6.94081 0.463312 7.99657e-12)
(6.95042 0.474602 7.97284e-12)
(6.93336 0.504564 1.10803e-11)
(6.87235 0.559575 8.33458e-12)
(6.74455 0.653904 6.23476e-12)
(6.5058 0.822439 4.04189e-12)
(6.08507 1.03006 9.14642e-12)
(5.49544 1.19994 4.45063e-12)
(4.64086 1.1263 6.08697e-12)
(3.66 0.91387 6.89243e-12)
(2.7142 0.585115 1.58386e-12)
(2.12764 0.389835 -8.09589e-13)
(1.90028 0.23177 6.19516e-12)
(1.75718 0.125706 -5.22911e-12)
(1.67674 0.0842158 -1.13088e-12)
(1.63697 0.055714 3.0439e-12)
(1.60962 0.0382803 5.31388e-12)
(1.5902 0.0265151 3.49902e-12)
(1.57697 0.0183995 4.85145e-12)
(1.56666 0.0130704 4.27474e-12)
(1.55953 0.00933739 -3.54739e-12)
(1.55381 0.00675275 -7.67907e-13)
(1.54988 0.00499767 -3.10897e-12)
(1.54648 0.00361218 -4.06626e-12)
(1.54454 0.00289878 -8.31668e-12)
(1.54214 0.00164724 -3.43238e-12)
(0.950166 0.0237699 9.18148e-14)
(1.03871 -0.0553632 6.60404e-13)
(1.06294 -0.0957657 1.45737e-13)
(1.1227 -0.116712 -5.64933e-13)
(1.24973 -0.126594 -2.59699e-12)
(1.4914 -0.107539 -9.0491e-12)
(1.83965 -0.0442093 -4.22913e-12)
(2.25565 0.0502794 7.49904e-12)
(2.69005 0.153003 8.19134e-12)
(3.11487 0.242496 6.67824e-12)
(3.5148 0.318082 5.80636e-12)
(3.8873 0.37686 2.51307e-12)
(4.22294 0.419321 7.89307e-12)
(4.52462 0.444626 2.62839e-12)
(4.79473 0.459406 1.22225e-11)
(5.0337 0.46865 1.37317e-12)
(5.24782 0.472548 8.64929e-12)
(5.44226 0.472065 6.66296e-12)
(5.61715 0.465965 6.95316e-12)
(5.77152 0.457312 2.18849e-12)
(5.90775 0.446962 7.87019e-12)
(6.02502 0.436488 1.42774e-11)
(6.12524 0.427981 4.4587e-12)
(6.20546 0.422092 8.26434e-12)
(6.26418 0.426816 9.41269e-12)
(6.29848 0.44398 8.10245e-12)
(6.2993 0.480916 1.28769e-11)
(6.25691 0.543038 1.13235e-11)
(6.14357 0.650928 8.56487e-12)
(5.91469 0.824231 5.7793e-12)
(5.53621 1.02812 4.92122e-12)
(4.99329 1.17832 3.07389e-12)
(4.22411 1.10771 7.95856e-12)
(3.35501 0.89982 8.87621e-12)
(2.51827 0.583326 3.44036e-12)
(2.05381 0.390225 -1.53861e-12)
(1.86192 0.235667 4.64754e-12)
(1.73818 0.131948 -8.67462e-12)
(1.6704 0.0891588 -3.97208e-12)
(1.63426 0.059389 1.75898e-12)
(1.60953 0.0408517 4.12245e-12)
(1.59152 0.0284054 1.39316e-12)
(1.57921 0.0197515 4.10814e-12)
(1.56954 0.0140579 4.50137e-12)
(1.56283 0.0100543 -1.36161e-12)
(1.55743 0.00727163 8.54902e-13)
(1.55372 0.00537823 -4.2375e-12)
(1.55052 0.00387691 -6.22851e-12)
(1.54871 0.00310335 -8.9348e-12)
(1.54647 0.00176579 -1.63122e-12)
(0.930562 0.0214112 3.98169e-14)
(0.990432 -0.00904004 1.56075e-13)
(1.01806 -0.0221324 -9.95181e-14)
(1.06027 -0.0255577 -9.00823e-13)
(1.12212 -0.0302225 -3.60382e-12)
(1.22993 -0.0200425 -5.09552e-12)
(1.39394 -0.00835664 5.48282e-13)
(1.63074 0.0124604 5.41566e-13)
(1.92624 0.0491481 1.80933e-12)
(2.25819 0.100105 2.50428e-12)
(2.60083 0.160184 2.84636e-12)
(2.93865 0.216872 -4.24605e-12)
(3.25981 0.261627 -5.76356e-12)
(3.55888 0.294539 -3.66113e-12)
(3.83604 0.31768 8.1364e-12)
(4.08895 0.332716 2.41552e-12)
(4.32109 0.344698 4.67151e-12)
(4.53491 0.353075 4.78935e-12)
(4.7306 0.356297 6.89359e-12)
(4.90774 0.357135 -2.62772e-12)
(5.06746 0.356361 1.54049e-12)
(5.20845 0.354957 6.97034e-12)
(5.33236 0.355372 3.76174e-12)
(5.43635 0.358586 1.41394e-11)
(5.51884 0.371552 1.1842e-11)
(5.57573 0.396892 8.62408e-12)
(5.59824 0.441163 1.87026e-11)
(5.57162 0.512085 1.35527e-11)
(5.47177 0.631472 9.93415e-12)
(5.26544 0.805527 7.01517e-12)
(4.93542 1.00232 3.81167e-13)
(4.44063 1.13166 1.40409e-12)
(3.77297 1.06912 4.45865e-12)
(3.02275 0.86858 5.82286e-12)
(2.31487 0.571457 4.87463e-12)
(1.97301 0.387882 -3.11508e-12)
(1.82013 0.23307 4.48658e-12)
(1.71737 0.136414 -1.10556e-11)
(1.66271 0.0928811 -4.65837e-12)
(1.63081 0.06264 2.7668e-12)
(1.60909 0.0432074 3.42538e-12)
(1.59275 0.0302017 -1.54201e-12)
(1.58154 0.021061 4.01406e-12)
(1.57263 0.0150252 4.3321e-12)
(1.56642 0.0107621 -4.57006e-13)
(1.56141 0.00778425 -1.44652e-12)
(1.55797 0.0057529 -6.74008e-12)
(1.55501 0.00413465 -9.01356e-12)
(1.55335 0.00329877 -9.71617e-12)
(1.55131 0.0018789 1.35295e-12)
(0.920479 0.0180149 9.4707e-15)
(0.960394 0.0147338 4.38485e-15)
(0.98746 0.0161414 -1.97707e-13)
(1.02209 0.0198723 -8.68252e-13)
(1.06287 0.0259645 -2.41172e-12)
(1.11923 0.0344886 -3.3195e-12)
(1.19981 0.0442226 -2.41418e-12)
(1.31138 0.0515748 -5.21287e-12)
(1.4632 0.062243 -2.92869e-12)
(1.65828 0.0740872 -1.32218e-12)
(1.88983 0.0902452 -2.35876e-12)
(2.1464 0.111979 -4.21161e-12)
(2.41254 0.138148 -5.3928e-12)
(2.67817 0.16368 -4.98062e-12)
(2.93748 0.185042 -2.46777e-12)
(3.18304 0.201963 -2.99118e-12)
(3.41509 0.216429 2.0547e-12)
(3.63391 0.228815 3.1523e-12)
(3.83944 0.238233 5.90781e-12)
(4.03083 0.245599 -1.60713e-12)
(4.20676 0.251694 6.74444e-13)
(4.3659 0.257796 2.74433e-12)
(4.50888 0.266416 4.743e-12)
(4.63303 0.278274 8.17179e-12)
(4.73595 0.299612 1.15897e-11)
(4.81251 0.332815 9.61901e-12)
(4.8542 0.385849 1.30414e-11)
(4.84152 0.467195 1.1945e-11)
(4.75626 0.594702 9.58361e-12)
(4.58015 0.765555 7.08242e-12)
(4.2948 0.947433 2.30018e-12)
(3.85933 1.05862 1.95635e-13)
(3.29994 1.00835 1.92912e-12)
(2.67718 0.813457 3.0919e-12)
(2.12364 0.546807 6.44721e-12)
(1.89726 0.365979 -9.32514e-13)
(1.77726 0.224287 -1.06655e-12)
(1.69555 0.138504 -9.18905e-12)
(1.6537 0.095126 -1.50887e-12)
(1.62652 0.0651947 8.21354e-13)
(1.6081 0.0451785 2.48417e-12)
(1.59372 0.0317907 -4.4047e-13)
(1.58379 0.0222571 1.33391e-12)
(1.57579 0.015924 3.67706e-12)
(1.57018 0.0114279 -5.86286e-12)
(1.56564 0.00826745 -4.71732e-12)
(1.56251 0.00610467 -6.68707e-12)
(1.55984 0.00437287 -7.89414e-12)
(1.55834 0.00347359 -9.65143e-12)
(1.55654 0.00197985 3.0602e-12)
(0.913924 0.0144466 6.95509e-15)
(0.941284 0.0231437 6.10668e-15)
(0.96551 0.0316927 -1.13487e-13)
(0.993277 0.0396074 -7.95457e-13)
(1.02574 0.0476226 -2.53229e-12)
(1.06578 0.057086 -3.46746e-12)
(1.11559 0.0669143 -2.75247e-12)
(1.17913 0.0768468 -3.03244e-12)
(1.25875 0.0851257 -2.69786e-12)
(1.35813 0.0924302 -2.25639e-12)
(1.48161 0.0959781 -9.24502e-12)
(1.63379 0.096614 -7.00057e-12)
(1.81256 0.098015 -6.09592e-12)
(2.01003 0.100107 -4.51721e-12)
(2.21718 0.101847 -1.23992e-11)
(2.42607 0.1057 -8.45386e-12)
(2.63366 0.112341 7.22524e-12)
(2.83743 0.121382 4.03548e-12)
(3.0348 0.13118 5.79727e-12)
(3.22335 0.140801 -9.66818e-12)
(3.40166 0.150445 2.7209e-12)
(3.56754 0.16168 9.01275e-13)
(3.71949 0.176321 1.01485e-11)
(3.85465 0.195467 6.33741e-12)
(3.96891 0.224189 1.48509e-11)
(4.05669 0.264933 1.00381e-11)
(4.10817 0.326572 1.02008e-11)
(4.10468 0.415658 9.72222e-12)
(4.03415 0.545284 8.31745e-12)
(3.88465 0.710858 6.39076e-12)
(3.63904 0.871006 2.69831e-12)
(3.27273 0.966686 -2.52201e-12)
(2.82302 0.919558 -3.40049e-14)
(2.33556 0.73143 8.77561e-13)
(1.9509 0.504447 3.31444e-12)
(1.82937 0.339883 -2.47149e-12)
(1.73772 0.213073 -1.99255e-12)
(1.67364 0.138976 -3.97488e-12)
(1.64335 0.0958847 7.58757e-13)
(1.62129 0.0668249 4.32391e-13)
(1.60637 0.0465855 1.90065e-12)
(1.59424 0.0330291 -6.82607e-13)
(1.58577 0.0232405 -5.55845e-13)
(1.57883 0.0166831 2.63061e-12)
(1.57393 0.0120008 -1.06239e-11)
(1.56994 0.00868461 -7.68484e-12)
(1.56718 0.00640607 -7.39473e-12)
(1.56483 0.00457209 -7.34639e-12)
(1.56353 0.00361246 -8.72553e-12)
(1.562 0.00205856 6.75466e-13)
(0.909266 0.0120187 2.61025e-14)
(0.929521 0.025536 1.18779e-13)
(0.949864 0.0370873 3.48437e-13)
(0.97271 0.0474516 -4.15993e-13)
(0.998427 0.0574038 -1.39988e-12)
(1.02935 0.0665588 -1.928e-12)
(1.06689 0.0755364 -2.01659e-12)
(1.11079 0.083259 -2.12157e-12)
(1.16313 0.0911357 -2.13039e-12)
(1.22612 0.0977681 -2.2381e-12)
(1.30041 0.100881 -3.86005e-12)
(1.39015 0.102021 -4.18689e-12)
(1.49793 0.098788 -4.16629e-12)
(1.62472 0.0902667 -4.26132e-12)
(1.76863 0.0795639 2.58843e-12)
(1.92409 0.0693386 -1.06674e-12)
(2.08696 0.0627725 1.00427e-12)
(2.25325 0.0602993 1.02763e-12)
(2.42068 0.0616003 2.55257e-12)
(2.58598 0.066522 -7.98448e-12)
(2.74646 0.0746443 -2.54367e-12)
(2.89912 0.0863563 -1.34078e-12)
(3.04116 0.103003 1.84642e-12)
(3.16886 0.125915 2.25067e-12)
(3.27689 0.158935 5.83588e-12)
(3.35953 0.206017 6.05058e-12)
(3.40583 0.272447 7.91823e-12)
(3.40077 0.3658 7.65187e-12)
(3.33943 0.493073 6.70783e-12)
(3.20928 0.646584 5.21086e-12)
(3.00256 0.780135 1.48654e-12)
(2.70958 0.85453 -1.27505e-12)
(2.36826 0.804208 -9.34798e-13)
(2.02438 0.627185 -5.79658e-13)
(1.81458 0.454893 8.9514e-13)
(1.74342 0.318843 -1.39633e-12)
(1.69087 0.19718 -2.48398e-12)
(1.6512 0.13596 1.31302e-12)
(1.63129 0.0945603 2.19741e-13)
(1.61495 0.0671239 2.04436e-13)
(1.60373 0.0471771 -3.84944e-12)
(1.59411 0.0337401 -2.62618e-12)
(1.58729 0.0238951 -2.07912e-12)
(1.58156 0.0172225 8.35895e-13)
(1.57747 0.0124264 -1.18683e-11)
(1.57411 0.00899744 -8.94793e-12)
(1.57178 0.00662988 -7.75402e-12)
(1.56981 0.00471365 -7.01114e-12)
(1.56872 0.0036994 -7.17089e-12)
(1.56748 0.00210703 -6.32794e-12)
(0.906455 0.0100803 1.34642e-14)
(0.921667 0.0242505 8.48321e-14)
(0.938141 0.0364705 4.4339e-13)
(0.956859 0.0474062 -4.02502e-13)
(0.978004 0.0576083 -1.62663e-12)
(1.00272 0.0671996 -1.58468e-12)
(1.03148 0.0754953 -1.60444e-12)
(1.06589 0.0822339 -1.65848e-12)
(1.10622 0.0879035 -1.7316e-12)
(1.15139 0.091479 -1.93586e-12)
(1.20581 0.093827 -2.65042e-12)
(1.27146 0.0940036 -2.75861e-12)
(1.3474 0.0893284 -2.72489e-12)
(1.43566 0.0801759 -2.62142e-12)
(1.53671 0.0677272 -1.11451e-12)
(1.6479 0.0545844 -8.60665e-13)
(1.76732 0.0434087 -3.29906e-13)
(1.89162 0.0353315 -1.10788e-12)
(2.01913 0.0313663 -8.57904e-13)
(2.14679 0.0317055 2.95682e-12)
(2.27256 0.0356508 8.18826e-13)
(2.39324 0.0446686 -1.20479e-12)
(2.50606 0.0599415 -1.36211e-12)
(2.60703 0.0832602 -9.41258e-13)
(2.69093 0.117072 1.84709e-12)
(2.75071 0.165266 2.55098e-12)
(2.77785 0.233457 8.51245e-12)
(2.76275 0.323019 5.98077e-12)
(2.70336 0.441767 4.91856e-12)
(2.58744 0.571724 3.62564e-12)
(2.42162 0.676358 -2.83134e-12)
(2.20915 0.724541 -2.1251e-12)
(1.97485 0.659699 -1.68621e-12)
(1.79179 0.514505 -1.3219e-12)
(1.71831 0.375816 -3.69726e-13)
(1.67834 0.269034 -1.756e-12)
(1.65049 0.179841 -2.78883e-12)
(1.62978 0.128681 -1.4908e-12)
(1.61819 0.09109 -1.34733e-12)
(1.60771 0.0657523 -1.07918e-12)
(1.60013 0.0467164 -1.99866e-12)
(1.5932 0.033714 -3.68729e-12)
(1.58814 0.0240612 -2.89514e-12)
(1.58376 0.0174234 -2.06934e-12)
(1.58057 0.0126161 -1.10512e-11)
(1.57792 0.00914005 -7.94396e-12)
(1.57607 0.0067277 -7.0565e-12)
(1.57451 0.0047652 -6.36381e-12)
(1.57366 0.00371388 -6.11426e-12)
(1.57271 0.00211144 -4.82439e-12)
(0.904624 0.00842596 -6.02308e-14)
(0.916016 0.0215286 -4.05104e-13)
(0.929053 0.0331082 -2.45067e-13)
(0.944151 0.0436082 -4.73419e-13)
(0.961397 0.0532844 -8.76903e-13)
(0.981245 0.0620809 -1.12141e-12)
(1.0041 0.0696561 -1.26985e-12)
(1.03076 0.0760038 -1.34373e-12)
(1.06221 0.0800561 -1.42424e-12)
(1.10001 0.0824627 -1.70152e-12)
(1.14471 0.0828587 -3.30006e-12)
(1.19497 0.0802224 -1.96233e-12)
(1.25306 0.0734704 -1.43071e-12)
(1.32156 0.0645405 -1.15176e-12)
(1.39788 0.0520538 -6.79857e-13)
(1.48085 0.0407854 -1.8282e-13)
(1.56902 0.030645 -5.00063e-13)
(1.65963 0.0232094 -4.38587e-12)
(1.75193 0.0187852 -2.59639e-12)
(1.84354 0.0179312 -6.82215e-13)
(1.93209 0.0211406 -2.12105e-13)
(2.01571 0.0293561 -4.45952e-12)