/*--------------------------------*- C++ -*----------------------------------*\
| =========                 |                                                 |
| \\      /  F ield         | OpenFOAM: The Open Source CFD Toolbox           |
|  \\    /   O peration     | Version:  2.4.x                                 |
|   \\  /    A nd           | Web:      www.OpenFOAM.org                      |
|    \\/     M anipulation  |                                                 |
\*---------------------------------------------------------------------------*/
FoamFile
{
    version     2.0;
    format      ascii;
    class       volScalarField;
    location    "0.05";
    object      varZ;
}
// * * * * * * * * * * * * * * * * * * * * * * * * * * * * * * * * * * * * * //

dimensions      [0 0 0 0 0 0 0];

internalField   nonuniform List<scalar> 
1250
(
0.00111912
0.0046058
0.00990042
0.0160622
0.0225989
0.0289624
0.0347376
0.0395792
0.0433808
0.0462158
0.0481327
0.0492967
0.0497155
0.0496302
0.0492007
0.0482669
0.0470491
0.0456433
0.0441046
0.042483
0.0408322
0.0391755
0.0375573
0.0360247
0.0345018
0.0331493
0.0319709
0.0304846
0.02956
0.0299265
0.0324595
0.0416483
0.0624911
0.060586
0.0414818
0.0148786
0.00328789
0.000637977
0.000125761
2.47179e-05
4.68754e-06
8.52001e-07
1.48811e-07
2.50604e-08
4.07921e-09
6.42775e-10
9.81149e-11
1.45071e-11
2.07656e-12
2.80325e-13
0.00125921
0.00517126
0.0110354
0.0177311
0.0246851
0.0312429
0.0370289
0.0417266
0.0453255
0.0479442
0.0496384
0.0505896
0.0508237
0.050622
0.0500122
0.0489591
0.0476589
0.046182
0.0445862
0.0429198
0.041234
0.039552
0.0379167
0.0363727
0.0348435
0.0334911
0.032307
0.0308195
0.0299193
0.0302926
0.0328872
0.042262
0.0626511
0.0604504
0.0412234
0.0147616
0.00326315
0.000633619
0.000124957
2.45712e-05
4.66212e-06
8.47888e-07
1.48188e-07
2.49721e-08
4.06755e-09
6.4136e-10
9.79622e-11
1.44936e-11
2.07587e-12
2.80388e-13
0.00167465
0.00682058
0.0142976
0.0223932
0.0302592
0.0370612
0.0426554
0.0468669
0.0498984
0.0519374
0.0530574
0.0534987
0.0533449
0.0527905
0.0517925
0.0504991
0.0490028
0.0473664
0.0456431
0.0438769
0.0421149
0.0403772
0.0387043
0.0371351
0.0355926
0.0342397
0.0330418
0.0315539
0.0307124
0.0310598
0.033839
0.0436947
0.0629636
0.0601313
0.0405816
0.014461
0.00319605
0.000621878
0.000122869
2.41931e-05
4.59621e-06
8.37045e-07
1.46505e-07
2.4725e-08
4.03325e-09
6.36876e-10
9.7415e-11
1.44324e-11
2.06983e-12
2.79906e-13
0.00284887
0.0111482
0.0223235
0.0327927
0.0414626
0.0478623
0.0525136
0.0555153
0.0573284
0.0582694
0.0583586
0.0580287
0.0571918
0.0559831
0.0544982
0.0528203
0.0510196
0.0491399
0.0472245
0.0453094
0.0434344
0.0416147
0.0398865
0.0382794
0.0367192
0.0353629
0.034142
0.0326616
0.0319122
0.0322492
0.0352717
0.0458562
0.0633372
0.0596155
0.0395323
0.0139696
0.00308439
0.000602349
0.000119426
2.35719e-05
4.48764e-06
8.19052e-07
1.43679e-07
2.43032e-08
3.97341e-09
6.28818e-10
9.63894e-11
1.431e-11
2.05636e-12
2.78586e-13
0.00774797
0.0243769
0.0422206
0.0537453
0.0609575
0.064987
0.0671143
0.0677404
0.0675075
0.0667744
0.065473
0.0639133
0.0621073
0.0601166
0.0579974
0.0558199
0.0536237
0.0514303
0.0492694
0.0471654
0.0451483
0.0432261
0.0414292
0.0397751
0.0381944
0.0368337
0.0355788
0.034123
0.0335035
0.0338978
0.0371745
0.0485431
0.0636352
0.0588835
0.0380666
0.0133027
0.00293245
0.000575768
0.00011476
2.27325e-05
4.34106e-06
7.94723e-07
1.39844e-07
2.37281e-08
3.89129e-09
6.17663e-10
9.4953e-11
1.41358e-11
2.03673e-12
2.76593e-13
0.0492065
0.0687594
0.0811394
0.0861458
0.0877132
0.0869575
0.0850131
0.0823781
0.0794955
0.0766019
0.0736345
0.0706848
0.0677577
0.0648714
0.0620351
0.0592941
0.0566502
0.0541015
0.0516648
0.0493503
0.0471764
0.0451427
0.0432716
0.0415675
0.0399668
0.038601
0.0373088
0.0359049
0.035447
0.0359433
0.0394858
0.0515402
0.0637117
0.0579265
0.036175
0.0124875
0.00274736
0.000543355
0.000109068
2.17103e-05
4.16276e-06
7.65138e-07
1.35178e-07
2.30277e-08
3.79112e-09
6.04035e-10
9.31954e-11
1.39224e-11
2.01265e-12
2.74149e-13
0.0702663
0.110625
0.119255
0.118079
0.114258
0.108453
0.102518
0.0967685
0.0913627
0.0864225
0.0818183
0.0775302
0.0735192
0.0697572
0.0662207
0.0629288
0.0598431
0.0569422
0.0542356
0.0517166
0.0493932
0.0472558
0.045317
0.0435686
0.0419533
0.0405818
0.0392589
0.0379504
0.0376703
0.038302
0.0421047
0.0545402
0.0634353
0.0565815
0.0339886
0.0115619
0.00253817
0.00050663
0.000102597
2.05483e-05
3.96031e-06
7.31573e-07
1.29889e-07
2.22343e-08
3.67781e-09
5.88656e-10
9.12203e-11
1.36843e-11
1.98611e-12
2.71511e-13
0.0306427
0.114808
0.135552
0.135841
0.131159
0.123442
0.115433
0.107851
0.100842
0.0945162
0.0887363
0.083457
0.0786159
0.0741614
0.0700713
0.066325
0.0628699
0.0596763
0.05675
0.054067
0.0516282
0.0494147
0.0474292
0.0456518
0.0440332
0.0426587
0.0413225
0.0401628
0.0400574
0.0408593
0.0449277
0.0571474
0.0626995
0.054706
0.031656
0.010567
0.00231518
0.000467313
9.56294e-05
1.92954e-05
3.7422e-06
6.95456e-07
1.24206e-07
2.1384e-08
3.55685e-09
5.72338e-10
8.91442e-11
1.34378e-11
1.95936e-12
2.68975e-13
0.0171094
0.0859401
0.122434
0.132742
0.132121
0.127533
0.120413
0.113107
0.105991
0.0993365
0.0931548
0.0874732
0.0822435
0.077436
0.0730551
0.0690408
0.0653569
0.0619926
0.0589395
0.0561682
0.0536751
0.0514317
0.049434
0.0476512
0.0460465
0.0446787
0.0433602
0.0424009
0.0424395
0.043457
0.0478366
0.0589519
0.0614663
0.0523295
0.0292222
0.00953911
0.00208837
0.000427154
8.84665e-05
1.80041e-05
3.51753e-06
6.58316e-07
1.18379e-07
2.05158e-08
3.43418e-09
5.55965e-10
8.70956e-11
1.32011e-11
1.9349e-12
2.6687e-13
0.0121117
0.0470599
0.0848151
0.107731
0.117317
0.118687
0.116011
0.111137
0.105474
0.0996858
0.0940745
0.0887381
0.0836975
0.0789837
0.074646
0.0706278
0.0669253
0.0635619
0.060511
0.0577637
0.0552982
0.0530865
0.0511225
0.0493672
0.0478003
0.0464579
0.0452013
0.0444719
0.0446311
0.0458866
0.0505181
0.0597619
0.0597991
0.0495415
0.0267233
0.00851711
0.00186717
0.000387823
8.14017e-05
1.67272e-05
3.29555e-06
6.2172e-07
1.12663e-07
1.96704e-08
3.31607e-09
5.40475e-10
8.52116e-11
1.29938e-11
1.91547e-12
2.6556e-13
0.00306651
0.0178888
0.0418154
0.0683739
0.0874886
0.0975595
0.101361
0.101036
0.0988547
0.0951674
0.0910431
0.0867423
0.0824432
0.0782751
0.0743388
0.0706288
0.0671903
0.0640495
0.061178
0.0585912
0.0562558
0.0541634
0.0522924
0.0506133
0.0491194
0.0478349
0.0466968
0.0462128
0.0464949
0.0479785
0.0527153
0.0595126
0.0577011
0.0462843
0.024173
0.00750703
0.00165291
0.000349493
7.44599e-05
1.54689e-05
3.07696e-06
5.85786e-07
1.07082e-07
1.88524e-08
3.20348e-09
5.26063e-10
8.35299e-11
1.28229e-11
1.9023e-12
2.65243e-13
0.00137944
0.00698346
0.0171371
0.0321612
0.0502065
0.0658566
0.0762036
0.0817839
0.0840122
0.0838735
0.0826018
0.08026
0.0774785
0.074495
0.0714742
0.0684995
0.0656585
0.0629992
0.0605178
0.0582467
0.0561709
0.0543052
0.0526233
0.0511034
0.0497439
0.0485764
0.047639
0.0474196
0.0478516
0.0495467
0.0540544
0.0583029
0.0550106
0.0423375
0.0214091
0.00646267
0.00143525
0.000310037
6.72015e-05
1.41405e-05
2.84459e-06
5.47355e-07
1.0108e-07
1.79689e-08
3.08151e-09
5.10439e-10
8.17128e-11
1.26406e-11
1.88886e-12
2.65081e-13
0.000778455
0.00337412
0.00757307
0.0136687
0.0223861
0.0334424
0.0449148
0.0545154
0.0612432
0.0653468
0.0674327
0.0679431
0.067517
0.0663939
0.064832
0.0630648
0.0612652
0.0594767
0.0577097
0.0560217
0.0544236
0.0529359
0.0515642
0.0503049
0.0491761
0.0482247
0.0476019
0.0476471
0.0483092
0.0502123
0.0540328
0.0558535
0.0513702
0.0375903
0.0183127
0.00536089
0.0012079
0.000267826
5.92221e-05
1.26484e-05
2.57822e-06
5.02333e-07
9.38747e-08
1.68774e-08
2.92538e-09
4.8947e-10
7.90982e-11
1.23447e-11
1.85999e-12
2.62966e-13
0.000484501
0.00190056
0.00390465
0.00654473
0.0100443
0.0147182
0.0207394
0.027864
0.0351226
0.0415806
0.0465957
0.0500973
0.05227
0.0534037
0.0537694
0.0536325
0.0532203
0.0525828
0.0517902
0.0509303
0.0500381
0.0491504
0.0482862
0.0474716
0.0467623
0.0462183
0.0460787
0.0464256
0.047464
0.0495191
0.0522426
0.0521002
0.0463951
0.0322414
0.0149232
0.00423266
0.000975391
0.000223138
5.04674e-05
1.09618e-05
2.26843e-06
4.48354e-07
8.49386e-08
1.54698e-08
2.71436e-09
4.59405e-10
7.50409e-11
1.18295e-11
1.79912e-12
2.56479e-13
0.000315582
0.0011645
0.00225418
0.00358608
0.00519536
0.00716605
0.00961871
0.0127122
0.0164908
0.0208439
0.0254557
0.0298556
0.0336091
0.0365584
0.0387325
0.0402408
0.0412797
0.0419595
0.0423292
0.0424856
0.042476
0.0423954
0.0422306
0.0420724
0.0420091
0.0420907
0.0424862
0.0433964
0.0449031
0.0468574
0.0482785
0.0468942
0.0400303
0.026315
0.0113785
0.00314537
0.000748771
0.000177423
4.11091e-05
9.09902e-06
1.91554e-06
3.84831e-07
7.40449e-08
1.36855e-08
2.4348e-09
4.1748e-10
6.90239e-11
1.10042e-11
1.69123e-12
2.43332e-13
0.00021
0.000741826
0.00138748
0.00213987
0.0029991
0.00397952
0.00511163
0.00644786
0.00804935
0.00997296
0.0122534
0.0148457
0.0176671
0.0204765
0.0230766
0.0253502
0.0273048
0.0289642
0.0303313
0.0314546
0.0323796
0.0331666
0.0338545
0.0345171
0.0352357
0.0360921
0.0372087
0.0386555
0.0404064
0.0420438
0.0424218
0.0400809
0.0324636
0.0199886
0.00793638
0.00216868
0.000539731
0.000132893
3.15919e-05
7.13851e-06
1.53229e-06
3.13572e-07
6.14017e-08
1.15386e-08
2.08519e-09
3.62794e-10
6.08024e-11
9.81622e-12
1.52631e-12
2.21849e-13
0.000139477
0.000479172
0.000878691
0.00133208
0.00183445
0.00238538
0.00299131
0.00366611
0.00443054
0.00530917
0.00633064
0.00751689
0.00890304
0.0104667
0.0121763
0.0139572
0.0157421
0.0174881
0.0191541
0.0207243
0.0221997
0.0235976
0.0249456
0.0262885
0.0276811
0.0291803
0.03083
0.0325942
0.0343004
0.0354067
0.035039
0.0318802
0.0241925
0.0136176
0.00495202
0.00137276
0.000360663
9.23749e-05
2.25612e-05
5.21532e-06
1.1438e-06
2.38979e-07
4.77262e-08
9.13726e-09
1.68035e-09
2.97158e-10
5.05601e-11
8.27738e-12
1.30368e-12
1.91613e-13
9.11002e-05
0.000307796
0.0005582
0.000838485
0.00114462
0.00147384
0.00182585
0.002204
0.00261509
0.00306915
0.00357831
0.00415657
0.00482845
0.00561974
0.00655968
0.00764665
0.00884792
0.0101449
0.0115139
0.0129345
0.0143926
0.0158834
0.0174117
0.018991
0.0206379
0.0223592
0.0241232
0.0258053
0.0271355
0.0275788
0.0265938
0.0228997
0.015987
0.00797599
0.00273443
0.00079353
0.000220693
5.86718e-05
1.47278e-05
3.48916e-06
7.83459e-07
1.67443e-07
3.4178e-08
6.67995e-09
1.25245e-09
2.25504e-10
3.90121e-11
6.48531e-12
1.03585e-12
1.5409e-13
5.77496e-05
0.000193318
0.000348579
0.000521267
0.000708665
0.000908266
0.00111837
0.00133882
0.0015713
0.00182051
0.00209342
0.00240086
0.00275966
0.00319707
0.0037402
0.00439719
0.00516452
0.00604013
0.0070189
0.00809403
0.00925926
0.0105094
0.0118408
0.0132491
0.0147223
0.0162252
0.0176753
0.0188992
0.0196053
0.0194426
0.0179279
0.0142057
0.0088399
0.00390943
0.00133662
0.000414273
0.000121308
3.33757e-05
8.61591e-06
2.09575e-06
4.82757e-07
1.05743e-07
2.20958e-08
4.41631e-09
8.45664e-10
1.55267e-10
2.73478e-11
4.62154e-12
7.49331e-13
1.12888e-13
3.50398e-05
0.000116836
0.000210257
0.000313998
0.000426309
0.000545311
0.000669338
0.000797365
0.000929504
0.00106785
0.00121738
0.00138748
0.00159187
0.00185104
0.00218379
0.00259704
0.00309423
0.00367746
0.00434686
0.00510114
0.00593783
0.00685231
0.00783646
0.00887503
0.00993835
0.0109693
0.0118664
0.0124646
0.0125405
0.0119374
0.010145
0.00717053
0.00390978
0.00163334
0.000584915
0.000192302
5.86398e-05
1.66352e-05
4.41674e-06
1.10423e-06
2.6128e-07
5.87334e-08
1.25807e-08
2.57416e-09
5.03891e-10
9.44329e-11
1.69491e-11
2.91385e-12
4.79884e-13
7.32202e-14
2.00043e-05
6.68062e-05
0.000120468
0.000180265
0.000245082
0.000313598
0.000384522
0.000456925
0.000530647
0.000606934
0.000689339
0.000784477
0.000902451
0.00105672
0.0012608
0.00152046
0.0018376
0.0022137
0.00264858
0.00314047
0.00368541
0.00427611
0.00489958
0.00553406
0.0061425
0.00666624
0.00701916
0.0070882
0.00681109
0.00596261
0.00451711
0.00282721
0.00142238
0.000601083
0.000225794
7.71531e-05
2.42339e-05
7.06518e-06
1.92781e-06
4.95331e-07
1.20401e-07
2.77816e-08
6.10171e-09
1.27829e-09
2.55775e-10
4.89145e-11
8.94474e-12
1.56428e-12
2.61643e-13
4.0387e-14
1.04418e-05
3.52988e-05
6.4269e-05
9.69263e-05
0.000132545
0.000170232
0.000209107
0.000248535
0.00028843
0.00032959
0.000374248
0.000426471
0.000492275
0.000579064
0.000695
0.000845754
0.00103218
0.00125358
0.00150826
0.00179266
0.00210064
0.00242262
0.00274394
0.00304325
0.00328889
0.00344008
0.00345324
0.0033082
0.00290831
0.00228294
0.00155424
0.000898471
0.000443149
0.000190822
7.3382e-05
2.56154e-05
8.22513e-06
2.45537e-06
6.86788e-07
1.80953e-07
4.50939e-08
1.06607e-08
2.39645e-09
5.1311e-10
1.04765e-10
2.04109e-11
3.79622e-12
6.74088e-13
1.14286e-13
1.77836e-14
4.61776e-06
1.63663e-05
3.06858e-05
4.72291e-05
6.54852e-05
8.48676e-05
0.000104832
0.000125002
0.000145341
0.00016629
0.00018896
0.000215407
0.000248545
0.000291886
0.000348999
0.00042295
0.000515047
0.000623883
0.000747038
0.000880623
0.0010187
0.00115305
0.00127278
0.00136439
0.00141169
0.00140579
0.00133461
0.00116913
0.000935153
0.000669592
0.000422826
0.000233341
0.000112831
4.83476e-05
1.86527e-05
6.57349e-06
2.14101e-06
6.50167e-07
1.85287e-07
4.97716e-08
1.26458e-08
3.0468e-09
6.97446e-10
1.51896e-10
3.15022e-11
6.22402e-12
1.17194e-12
2.10327e-13
3.59874e-14
5.6009e-15
1.24065e-06
5.42808e-06
1.14339e-05
1.8583e-05
2.65254e-05
3.4946e-05
4.36356e-05
5.24148e-05
6.1223e-05
7.02239e-05
7.97827e-05
9.06639e-05
0.000104024
0.000121222
0.000143593
0.000172071
0.000206921
0.000247213
0.000291033
0.000335986
0.000378915
0.000415614
0.000441248
0.000450783
0.000444512
0.000415534
0.000360012
0.000288465
0.000210895
0.000139183
8.19456e-05
4.27791e-05
1.98886e-05
8.31827e-06
3.1708e-06
1.11385e-06
3.6363e-07
1.10999e-07
3.18447e-08
8.62155e-09
2.20977e-09
5.37091e-10
1.23913e-10
2.71728e-11
5.66919e-12
1.12567e-12
2.12683e-13
3.82408e-14
6.54841e-15
1.00375e-15
4.19289e-08
7.65535e-07
1.80092e-06
3.00782e-06
4.3981e-06
5.90723e-06
7.50622e-06
9.1623e-06
1.08181e-05
1.24764e-05
1.41688e-05
1.60103e-05
1.82113e-05
2.10052e-05
2.45942e-05
2.90619e-05
3.42864e-05
4.00436e-05
4.59399e-05
5.15219e-05
5.62697e-05
5.95552e-05
6.07488e-05
5.93265e-05
5.50384e-05
4.79127e-05
3.87661e-05
2.89644e-05
1.98707e-05
1.24662e-05
7.08183e-06
3.63571e-06
1.69623e-06
7.25043e-07
2.86893e-07
1.07057e-07
3.74006e-08
1.07725e-08
2.5149e-09
6.25434e-10
1.82699e-10
4.94515e-11
9.4613e-12
1.77387e-12
3.59636e-13
8.20297e-14
1.55939e-14
2.46381e-15
3.89568e-16
5.51787e-17
)
;

boundaryField
{
    AXIS
    {
        type            empty;
    }
    OUTLET
    {
        type            zeroGradient;
    }
    COFLOW
    {
        type            fixedValue;
        value           uniform 0;
    }
    PILOT
    {
        type            fixedValue;
        value           uniform 0;
    }
    FUEL
    {
        type            fixedValue;
        value           uniform 0;
    }
    WALL
    {
        type            zeroGradient;
    }
    front
    {
        type            wedge;
    }
    back
    {
        type            wedge;
    }
}


// ************************************************************************* //
