/*--------------------------------*- C++ -*----------------------------------*\
| =========                 |                                                 |
| \\      /  F ield         | OpenFOAM: The Open Source CFD Toolbox           |
|  \\    /   O peration     | Version:  2.4.x                                 |
|   \\  /    A nd           | Web:      www.OpenFOAM.org                      |
|    \\/     M anipulation  |                                                 |
\*---------------------------------------------------------------------------*/
FoamFile
{
    version     2.0;
    format      ascii;
    class       volScalarField;
    location    "0.05";
    object      Z;
}
// * * * * * * * * * * * * * * * * * * * * * * * * * * * * * * * * * * * * * //

dimensions      [0 0 0 0 0 0 0];

internalField   nonuniform List<scalar> 
1250
(
0.997378
0.989512
0.978922
0.966903
0.953699
0.939736
0.925398
0.911177
0.897322
0.88388
0.870823
0.858048
0.845656
0.833641
0.822029
0.81081
0.799855
0.78911
0.778589
0.768286
0.758156
0.748205
0.738333
0.728434
0.718631
0.70853
0.698602
0.688305
0.677892
0.668221
0.649112
0.597956
0.463313
0.290925
0.149432
0.0553642
0.0133805
0.00277733
0.000581518
0.000121941
2.48469e-05
4.88698e-06
9.29182e-07
1.71038e-07
3.04834e-08
5.25482e-09
8.74575e-10
1.40227e-10
2.16125e-11
3.11216e-12
0.996973
0.988103
0.976575
0.963639
0.949568
0.934979
0.920235
0.905857
0.891958
0.87854
0.865556
0.852909
0.840669
0.828822
0.817382
0.806319
0.795514
0.784915
0.774536
0.764369
0.754364
0.744525
0.734749
0.724941
0.71521
0.705182
0.695331
0.68511
0.674797
0.665134
0.645904
0.594418
0.459908
0.288965
0.148503
0.0549866
0.0132913
0.00276035
0.000578237
0.000121318
2.4735e-05
4.86823e-06
9.26263e-07
1.70619e-07
3.04291e-08
5.24878e-09
8.74096e-10
1.4023e-10
2.16245e-11
3.1154e-12
0.995715
0.984013
0.969876
0.954488
0.93838
0.922584
0.907229
0.892744
0.878939
0.865801
0.85318
0.840961
0.829172
0.817782
0.806789
0.796151
0.785727
0.775492
0.76546
0.755616
0.745906
0.73633
0.726779
0.717178
0.707624
0.697763
0.688091
0.678034
0.667941
0.658284
0.638739
0.586363
0.452049
0.284291
0.146198
0.0540001
0.0130449
0.00271392
0.000569593
0.000119686
2.44379e-05
4.81719e-06
9.17996e-07
1.69357e-07
3.02488e-08
5.22498e-09
8.71269e-10
1.39947e-10
2.16058e-11
3.11587e-12
0.991826
0.973494
0.953455
0.933679
0.915061
0.898462
0.883176
0.869322
0.856446
0.844332
0.832711
0.821479
0.81064
0.800152
0.790021
0.780167
0.770431
0.760837
0.751396
0.742092
0.732869
0.723722
0.71454
0.705276
0.696008
0.686429
0.677044
0.667235
0.657471
0.647795
0.627744
0.573868
0.440023
0.276998
0.142505
0.0523708
0.0126297
0.00263587
0.000555205
0.000116977
2.39426e-05
4.73111e-06
9.03803e-07
1.67136e-07
2.99196e-08
5.17906e-09
8.65314e-10
1.39245e-10
2.15342e-11
3.11027e-12
0.973982
0.94018
0.911342
0.888993
0.870997
0.856493
0.843868
0.832638
0.822326
0.812487
0.802878
0.79349
0.784334
0.775384
0.766652
0.758023
0.74936
0.740745
0.732189
0.72368
0.715164
0.706636
0.697988
0.689205
0.680333
0.671169
0.662199
0.652725
0.643383
0.633649
0.612893
0.556994
0.424331
0.267345
0.13753
0.0501419
0.0120591
0.00252888
0.000535591
0.000113296
2.32697e-05
4.61389e-06
8.8438e-07
1.64074e-07
2.94611e-08
5.11421e-09
8.5673e-10
1.382e-10
2.14213e-11
3.1002e-12
0.798789
0.825884
0.817358
0.80776
0.799342
0.792785
0.786889
0.78108
0.775304
0.769308
0.763038
0.756545
0.749939
0.743229
0.73648
0.729548
0.722383
0.715121
0.70777
0.700331
0.692759
0.685052
0.677115
0.66896
0.66061
0.651979
0.643554
0.634513
0.625686
0.615861
0.594198
0.535915
0.405589
0.255699
0.131421
0.0473894
0.0113573
0.00239761
0.00051155
0.000108794
2.24478e-05
4.47075e-06
8.60647e-07
1.60328e-07
2.88995e-08
5.03463e-09
8.46183e-10
1.36915e-10
2.12824e-11
3.08786e-12
0.502882
0.641593
0.677049
0.693686
0.703034
0.709179
0.713191
0.715312
0.715868
0.715213
0.713493
0.710854
0.707612
0.703823
0.699654
0.694876
0.689617
0.684081
0.678241
0.67214
0.665742
0.659051
0.651996
0.644611
0.636911
0.628945
0.621151
0.612637
0.604435
0.594499
0.571744
0.510948
0.384541
0.242498
0.12436
0.044217
0.0105566
0.00224805
0.000484098
0.000103656
2.15114e-05
4.30791e-06
8.33687e-07
1.56082e-07
2.82649e-08
4.94525e-09
8.34448e-10
1.35509e-10
2.11356e-11
3.07579e-12
0.32006
0.452086
0.516518
0.560027
0.590097
0.611017
0.626745
0.638118
0.646267
0.651697
0.65527
0.657261
0.65799
0.657712
0.656668
0.654451
0.651455
0.647977
0.643903
0.639375
0.634342
0.628831
0.622808
0.616312
0.609391
0.602225
0.595137
0.587227
0.579754
0.569688
0.545738
0.482685
0.362021
0.228186
0.116563
0.0407524
0.00969529
0.00208709
0.000454416
9.80968e-05
2.04998e-05
4.13237e-06
8.04719e-07
1.51542e-07
2.75918e-08
4.8516e-09
8.22407e-10
1.34119e-10
2.10013e-11
3.06695e-12
0.23961
0.280312
0.353164
0.418534
0.468
0.504229
0.531896
0.552876
0.568965
0.580994
0.590329
0.597291
0.602403
0.605959
0.608164
0.608852
0.60848
0.607339
0.605189
0.602422
0.598893
0.594689
0.589817
0.584323
0.578308
0.572065
0.565753
0.558567
0.551896
0.541673
0.516596
0.452416
0.338462
0.213205
0.108265
0.0371295
0.00881244
0.00192188
0.00042378
9.23483e-05
1.94554e-05
3.95174e-06
7.75067e-07
1.46933e-07
2.69176e-08
4.75982e-09
8.11037e-10
1.32898e-10
2.09028e-11
3.06466e-12
0.134221
0.137439
0.201662
0.280043
0.344219
0.393897
0.432467
0.462692
0.486409
0.505031
0.520205
0.532209
0.541833
0.54937
0.554973
0.558842
0.561315
0.562592
0.562526
0.561697
0.559752
0.556968
0.553353
0.548996
0.544018
0.538818
0.533358
0.527076
0.521247
0.510893
0.484946
0.421217
0.314488
0.197986
0.0997125
0.0334872
0.00794537
0.00175931
0.000393448
8.66472e-05
1.8422e-05
3.77392e-06
7.4612e-07
1.42495e-07
2.62824e-08
4.67653e-09
8.01404e-10
1.32012e-10
2.08657e-11
3.07262e-12
0.0177013
0.0471135
0.0917964
0.157468
0.224682
0.282426
0.329565
0.36776
0.398536
0.423559
0.44425
0.461267
0.475447
0.487019
0.49616
0.503448
0.509032
0.512936
0.515229
0.516265
0.516047
0.514925
0.512698
0.509654
0.505896
0.501891
0.497429
0.492319
0.487298
0.476989
0.450661
0.389007
0.289943
0.182429
0.0908657
0.0298445
0.00709998
0.00160013
0.000363525
8.10125e-05
1.74031e-05
3.5996e-06
7.18035e-07
1.38264e-07
2.5695e-08
4.60366e-09
7.93918e-10
1.31544e-10
2.09053e-11
3.09344e-12
0.00500173
0.0177927
0.0370981
0.070545
0.118983
0.173085
0.223191
0.266677
0.303371
0.334301
0.360211
0.382237
0.400923
0.416606
0.429523
0.440273
0.448972
0.455628
0.460449
0.46368
0.465468
0.465952
0.465469
0.464027
0.461759
0.459213
0.456046
0.452476
0.448201
0.438234
0.412427
0.354314
0.263587
0.165638
0.0811995
0.0260271
0.0062331
0.00143496
0.000332002
7.50169e-05
1.63109e-05
3.41151e-06
6.87562e-07
1.33654e-07
2.50541e-08
4.52439e-09
7.85905e-10
1.31087e-10
2.09625e-11
3.11908e-12
0.00219061
0.00825787
0.0167216
0.0300123
0.0516676
0.0837678
0.123462
0.164821
0.203418
0.238123
0.268502
0.295135
0.318101
0.33783
0.354557
0.368532
0.380128
0.389499
0.39687
0.402422
0.406372
0.408878
0.410282
0.410621
0.410331
0.409642
0.408307
0.406496
0.403086
0.393887
0.369872
0.316312
0.234611
0.146893
0.0702914
0.0219276
0.0053156
0.00125627
0.000296854
6.81682e-05
1.50321e-05
3.18504e-06
6.49623e-07
1.27665e-07
2.41707e-08
4.40459e-09
7.71443e-10
1.29655e-10
2.08803e-11
3.12624e-12
0.00121395
0.00453487
0.00887421
0.0148395
0.0235298
0.0365563
0.0555974
0.0813095
0.111716
0.143816
0.174844
0.203726
0.229664
0.252573
0.272429
0.289253
0.30351
0.31544
0.325228
0.333119
0.339344
0.344102
0.347732
0.350374
0.352408
0.354052
0.355151
0.355068
0.353
0.345231
0.323766
0.275216
0.203137
0.12606
0.0581748
0.0176383
0.00436289
0.00106475
0.000257666
6.02489e-05
1.35005e-05
2.9031e-06
6.0021e-07
1.19425e-07
2.28665e-08
4.20968e-09
7.4417e-10
1.26135e-10
2.04729e-11
3.0863e-12
0.000766173
0.00278301
0.00531114
0.00850979
0.0126836
0.0183197
0.0261123
0.0370268
0.0519204
0.0711497
0.0939811
0.118809
0.143559
0.166896
0.187967
0.206401
0.222445
0.236343
0.248201
0.258307
0.266873
0.27412
0.280327
0.285707
0.290541
0.294952
0.298782
0.300837
0.300013
0.29401
0.27505
0.231741
0.169614
0.103304
0.0452567
0.013399
0.00341754
0.000865012
0.000214829
5.12539e-05
1.1695e-05
2.55715e-06
5.36826e-07
1.08308e-07
2.10003e-08
3.91025e-09
6.98366e-10
1.19479e-10
1.9559e-11
2.97047e-12
0.00051821
0.00182864
0.00342981
0.0053683
0.00774188
0.0107092
0.0145033
0.0194645
0.0260422
0.0347576
0.0461153
0.0603232
0.0770591
0.0951423
0.113186
0.130215
0.14596
0.16036
0.173356
0.18506
0.195608
0.20517
0.213904
0.221996
0.229584
0.236635
0.242806
0.246793
0.246995
0.242234
0.225089
0.186993
0.134807
0.0792164
0.0324144
0.00949079
0.00252816
0.000666008
0.000170046
4.14818e-05
9.65807e-06
2.15154e-06
4.59431e-07
9.41336e-08
1.85076e-08
3.48942e-09
6.30238e-10
1.08922e-10
1.79959e-11
2.75483e-12
0.000361769
0.00124876
0.0023139
0.00357612
0.00507299
0.00686716
0.00905519
0.0117758
0.0152198
0.0196287
0.0252931
0.0324895
0.0414681
0.0520998
0.0639143
0.0762722
0.0887609
0.101118
0.113128
0.12468
0.135729
0.146281
0.156364
0.166001
0.175163
0.183639
0.190865
0.195542
0.196081
0.19151
0.175345
0.142534
0.0999762
0.0551629
0.0209604
0.00621791
0.00174802
0.000479879
0.00012613
3.15235e-05
7.50393e-06
1.70623e-06
3.71232e-07
7.73594e-08
1.54422e-08
2.95119e-09
5.39526e-10
9.42656e-11
1.57287e-11
2.42796e-12
0.000254785
0.000866721
0.00159326
0.00244555
0.00344236
0.00461426
0.00600849
0.00769572
0.00977608
0.0123835
0.0156783
0.0198331
0.0250267
0.0313423
0.0387056
0.046887
0.0556349
0.0647973
0.0742272
0.0837997
0.0934135
0.102982
0.112425
0.121631
0.130412
0.138408
0.144927
0.148721
0.148597
0.143265
0.127568
0.100466
0.0669679
0.0336058
0.0121334
0.00375964
0.00111904
0.000319428
8.64392e-05
2.21654e-05
5.40347e-06
1.25588e-06
2.78782e-07
5.91607e-08
1.20031e-08
2.32733e-09
4.30988e-10
7.61731e-11
1.28419e-11
1.99949e-12
0.000178092
0.00060066
0.00109926
0.00168189
0.0023601
0.00315154
0.00408307
0.0051951
0.00654651
0.00822213
0.010332
0.0130048
0.016369
0.020531
0.0254827
0.0311057
0.037269
0.0438774
0.0508451
0.0580906
0.0655326
0.0730767
0.0806043
0.0879467
0.0948423
0.100859
0.105305
0.107112
0.105695
0.0990735
0.084399
0.0631255
0.0385046
0.0174739
0.00630677
0.00208283
0.000652934
0.000193137
5.38065e-05
1.41714e-05
3.54204e-06
8.42397e-07
1.90944e-07
4.12913e-08
8.52084e-09
1.67719e-09
3.14744e-10
5.62867e-11
9.58979e-12
1.50597e-12
0.000121779
0.000409239
0.000748051
0.00114422
0.00160551
0.00214305
0.00277336
0.00352134
0.00442419
0.00553705
0.00693727
0.0087245
0.011006
0.0138776
0.0173502
0.0213391
0.025754
0.030515
0.0355479
0.0407818
0.0461404
0.0515284
0.0568162
0.0618185
0.0662608
0.0697293
0.0716378
0.0714081
0.0684272
0.0609077
0.0487488
0.0334057
0.0182458
0.00789873
0.00298504
0.00104461
0.00034106
0.000104073
2.98221e-05
8.0668e-06
2.0674e-06
5.03168e-07
1.16467e-07
2.56641e-08
5.38532e-09
1.07587e-09
2.04564e-10
3.70082e-11
6.37051e-12
1.00833e-12
8.00475e-05
0.000269509
0.000494078
0.000758265
0.0010673
0.0014282
0.00185116
0.00235169
0.00295336
0.00369168
0.00461869
0.00580368
0.00732603
0.00926195
0.0116464
0.0144234
0.017509
0.0208268
0.0243005
0.0278538
0.0314034
0.0348496
0.0380614
0.0408645
0.0430148
0.0441886
0.0440844
0.042427
0.0382885
0.0316706
0.0231438
0.0142932
0.0073028
0.00320972
0.00127169
0.00046232
0.000155449
4.87207e-05
1.43292e-05
3.97442e-06
1.04287e-06
2.59379e-07
6.12293e-08
1.37301e-08
2.92568e-09
5.9239e-10
1.13977e-10
2.0838e-11
3.62058e-12
5.76545e-13
4.89949e-05
0.0001671
0.000309754
0.000480068
0.000681254
0.000917315
0.001194
0.00152019
0.00190967
0.0023833
0.0029721
0.00371847
0.00467253
0.00588133
0.00737824
0.00915053
0.0111328
0.0132494
0.015426
0.0175853
0.0196433
0.0215056
0.0230593
0.024171
0.0246606
0.0244636
0.0233587
0.0209834
0.0175012
0.0132182
0.00880237
0.00508887
0.00256833
0.00115211
0.000467202
0.000173401
5.95285e-05
1.90647e-05
5.73028e-06
1.62306e-06
4.34322e-07
1.0998e-07
2.63826e-08
5.99986e-09
1.29414e-09
2.64806e-10
5.14145e-11
9.47346e-12
1.65701e-12
2.64362e-13
2.56841e-05
9.20199e-05
0.000176239
0.000279809
0.000404097
0.000550744
0.00072229
0.000922836
0.00115914
0.00144125
0.00178413
0.00220926
0.00274205
0.00340686
0.00421899
0.00517808
0.00625406
0.00739017
0.00852782
0.00960429
0.0105521
0.0113015
0.0117814
0.0119198
0.0117341
0.0110601
0.00984007
0.0082033
0.00630566
0.00439529
0.00274781
0.00153043
0.000760539
0.000339835
0.000138151
5.16647e-05
1.79362e-05
5.81932e-06
1.77274e-06
5.08634e-07
1.3773e-07
3.52455e-08
8.53214e-09
1.95524e-09
4.24366e-10
8.72534e-11
1.70018e-11
3.14057e-12
5.50271e-13
8.72301e-14
8.26715e-06
3.6704e-05
7.99748e-05
0.000135599
0.00020341
0.000283544
0.000376923
0.000484541
0.000608444
0.000752156
0.000920721
0.00112235
0.00136725
0.00166513
0.00202155
0.00243297
0.00288506
0.00334955
0.00379252
0.00417884
0.00447265
0.00463945
0.00466272
0.00455717
0.00423591
0.0037215
0.00307981
0.00237452
0.00168663
0.00109393
0.00064272
0.000340423
0.000163004
7.10677e-05
2.84594e-05
1.05498e-05
3.64603e-06
1.18107e-06
3.59702e-07
1.031e-07
2.78639e-08
7.11158e-09
1.71623e-09
3.91916e-10
8.46868e-11
1.73189e-11
3.35401e-12
6.15419e-13
1.07097e-13
1.66074e-14
3.31528e-07
6.63167e-06
1.86311e-05
3.64935e-05
6.0118e-05
8.8897e-05
0.000121468
0.000155598
0.000194341
0.000237731
0.000285985
0.000340257
0.000402735
0.000475591
0.000559759
0.000653327
0.000750561
0.000844071
0.000924856
0.000984444
0.00101555
0.00101225
0.000971568
0.000891865
0.000775916
0.000637116
0.000491082
0.000353173
0.000235916
0.000145933
8.30542e-05
4.34806e-05
2.11874e-05
9.83113e-06
3.87568e-06
1.14281e-06
3.26929e-07
1.15687e-07
4.26967e-08
1.10902e-08
2.53189e-09
5.76594e-10
1.32804e-10
3.25772e-11
6.85013e-12
1.29465e-12
2.37019e-13
4.16807e-14
7.02043e-15
1.02734e-15
)
;

boundaryField
{
    AXIS
    {
        type            empty;
    }
    OUTLET
    {
        type            inletOutlet;
        inletValue      uniform 0;
        value           nonuniform List<scalar> 
25
(
3.11216e-12
3.1154e-12
3.11587e-12
3.11027e-12
3.1002e-12
3.08786e-12
3.07579e-12
3.06695e-12
3.06466e-12
3.07262e-12
3.09344e-12
3.11908e-12
3.12624e-12
3.0863e-12
2.97047e-12
2.75483e-12
2.42796e-12
1.99949e-12
1.50597e-12
1.00833e-12
5.76545e-13
2.64362e-13
8.72301e-14
1.66074e-14
1.02734e-15
)
;
    }
    COFLOW
    {
        type            fixedValue;
        value           uniform 0;
    }
    PILOT
    {
        type            fixedValue;
        value           uniform 0.271;
    }
    FUEL
    {
        type            fixedValue;
        value           uniform 1;
    }
    WALL
    {
        type            zeroGradient;
    }
    front
    {
        type            wedge;
    }
    back
    {
        type            wedge;
    }
}


// ************************************************************************* //
