/*--------------------------------*- C++ -*----------------------------------*\
| =========                 |                                                 |
| \\      /  F ield         | OpenFOAM: The Open Source CFD Toolbox           |
|  \\    /   O peration     | Version:  2.4.x                                 |
|   \\  /    A nd           | Web:      www.OpenFOAM.org                      |
|    \\/     M anipulation  |                                                 |
\*---------------------------------------------------------------------------*/
FoamFile
{
    version     2.0;
    format      ascii;
    class       volScalarField;
    location    "0.06";
    object      chi;
}
// * * * * * * * * * * * * * * * * * * * * * * * * * * * * * * * * * * * * * //

dimensions      [0 0 -1 0 0 0 0];

internalField   nonuniform List<scalar> 
1250
(
0.0306919
0.210798
0.657921
1.50539
2.83069
4.54481
6.47509
8.4468
10.2246
11.7526
13.0155
13.8679
14.4624
14.7396
14.8525
14.7443
14.4184
13.959
13.422
12.8219
12.1684
11.5057
10.8321
10.1773
9.53534
8.92713
8.35091
7.80851
7.30958
6.85025
6.41758
6.06815
5.64626
5.3896
5.5574
6.59963
10.3529
13.4013
10.5394
3.50898
0.523699
0.0508269
0.00601878
0.000989008
0.000174329
2.99399e-05
4.93929e-06
7.83386e-07
1.19734e-07
1.71633e-08
0.0360017
0.25477
0.81875
1.88972
3.50657
5.49543
7.64689
9.70067
11.5043
12.9771
14.1362
14.9069
15.3642
15.5613
15.5767
15.3324
14.926
14.4067
13.8038
13.1467
12.4555
11.752
11.0514
10.368
9.70867
9.08101
8.49161
7.93735
7.42948
6.96174
6.52262
6.16554
5.74224
5.47506
5.64315
6.69011
10.4559
13.3671
10.4834
3.48296
0.519395
0.050404
0.00597722
0.000983302
0.000173439
2.98047e-05
4.92002e-06
7.80831e-07
1.19422e-07
1.71292e-08
0.0525483
0.40779
1.40021
3.21249
5.65527
8.30552
10.8212
12.98
14.6784
15.9345
16.7995
17.2794
17.4646
17.4271
17.1203
16.6464
16.0548
15.3753
14.6349
13.8605
13.0723
12.288
11.5219
10.784
10.0788
9.41398
8.79499
8.21598
7.68762
7.20348
6.7483
6.37693
5.94772
5.66545
5.83303
6.88963
10.6357
13.2898
10.3435
3.4092
0.506484
0.0491916
0.00586726
0.000968444
0.000171097
2.94417e-05
4.86668e-06
7.73451e-07
1.18463e-07
1.70147e-08
0.110094
1.00324
3.5786
7.42789
11.3717
14.7963
17.3887
19.2882
20.3843
21.0107
21.2463
21.1558
20.7782
20.2075
19.4775
18.6428
17.7518
16.8212
15.8696
14.9186
13.9853
13.081
12.2175
11.3989
10.6271
9.90649
9.24363
8.62853
8.07035
7.5618
7.08294
6.69114
6.2517
5.94905
6.12029
7.19882
10.9067
13.1759
10.1189
3.28527
0.484467
0.0471569
0.00568631
0.000944095
0.000167244
2.88392e-05
4.7771e-06
7.6085e-07
1.16787e-07
1.68088e-08
0.55556
4.81212
12.8509
20.0862
24.8748
27.8507
29.0015
29.4917
29.1353
28.4406
27.4933
26.3937
25.1662
23.8731
22.5438
21.221
19.9303
18.6677
17.4418
16.2648
15.1458
14.0893
13.1023
12.1825
11.3269
10.5372
9.81776
9.15713
8.56201
8.02199
7.51319
7.09663
6.64233
6.31657
6.49472
7.61207
11.2211
13.016
9.80749
3.11465
0.454331
0.0444065
0.00544249
0.000911257
0.000162042
2.80244e-05
4.65559e-06
7.43681e-07
1.1449e-07
1.65243e-08
12.1816
30.1618
43.0383
47.4327
48.4094
47.8318
45.5532
42.9386
40.1891
37.5464
35.0074
32.586
30.278
28.1078
26.0717
24.1827
22.428
20.782
19.2416
17.8076
16.4775
15.249
14.1226
13.0891
12.1401
11.2738
10.4904
9.77695
9.14001
8.56323
8.02038
7.57662
7.10161
6.75502
6.93578
8.14004
11.5141
12.8027
9.41398
2.90132
0.417641
0.0410911
0.00514712
0.000871285
0.000155703
2.70317e-05
4.50752e-06
7.22748e-07
1.11687e-07
1.61769e-08
23.7897
62.6099
75.9659
76.244
72.7569
68.5403
62.4116
56.6723
51.4368
46.7944
42.6151
38.8498
35.4579
32.4139
29.6714
27.2172
24.998
22.9657
21.1087
19.4154
17.872
16.4701
15.2031
14.0554
13.0127
12.0698
11.2219
10.4541
9.77278
9.15593
8.578
8.10645
7.60401
7.24532
7.43321
8.72573
11.7437
12.533
8.93691
2.65562
0.376388
0.0373977
0.00481418
0.000825819
0.000148482
2.59016e-05
4.3392e-06
6.98991e-07
1.08512e-07
1.57847e-08
9.6698
55.4302
84.3593
89.508
86.5967
81.1594
73.8494
66.6784
60.0754
54.1601
48.8445
44.1035
39.8962
36.1705
32.8657
29.9429
27.3344
24.9745
22.8444
20.9252
19.1951
17.6422
16.2514
15.0032
13.8773
12.866
11.9601
11.1429
10.4194
9.76143
9.15114
8.65234
8.11658
7.76186
7.97027
9.31838
11.8676
12.1924
8.37549
2.39104
0.332756
0.0335307
0.004459
0.000776706
0.000140667
2.46803e-05
4.15774e-06
6.7347e-07
1.05119e-07
1.53684e-08
3.85705
32.1364
65.7273
81.82
84.5819
82.2806
76.8484
70.333
63.9539
57.8618
52.3135
47.2965
42.7949
38.7645
35.1758
31.984
29.1296
26.5554
24.24
22.1645
20.3046
18.6458
17.1656
15.8442
14.6562
13.593
12.642
11.7866
11.0284
10.3333
9.69666
9.17123
8.601
8.27059
8.50475
9.80573
11.8985
11.7841
7.73879
2.11856
0.288953
0.02969
0.00409709
0.000725921
0.000132572
2.34178e-05
3.97087e-06
6.47332e-07
1.01671e-07
1.49505e-08
1.79431
12.54
34.9603
55.9754
67.4735
71.1286
70.4748
66.8844
62.6378
57.5737
52.7278
48.0219
43.6944
39.762
36.2135
33.0041
30.0893
27.4583
25.0921
22.9679
21.0631
19.3611
17.8408
16.4847
15.2657
14.1754
13.1991
12.3217
11.5405
10.8182
10.1647
9.61333
9.01683
8.73198
8.9868
10.1361
11.8289
11.3092
7.0391
1.84896
0.247054
0.0260467
0.00374332
0.000675473
0.00012452
2.2166e-05
3.78665e-06
6.21783e-07
9.83439e-08
1.45547e-08
0.170331
2.58999
11.4542
26.7162
41.5279
51.1495
55.7382
56.4274
55.325
52.3461
49.3835
45.7596
42.2847
38.9443
35.7875
32.8437
30.0995
27.5837
25.294
23.2219
21.3582
19.6843
18.186
16.8435
15.6333
14.5479
13.5725
12.6942
11.9043
11.1694
10.5118
9.93702
9.33575
9.11371
9.37231
10.2978
11.6351
10.7363
6.29409
1.58754
0.207512
0.0226222
0.00339895
0.000625482
0.000116528
2.0928e-05
3.6057e-06
5.96949e-07
9.51636e-08
1.41863e-08
0.0455436
0.514911
2.56355
7.99771
17.0862
27.3213
35.3256
40.0835
42.3357
42.4472
41.7254
39.8727
37.9169
35.6595
33.2492
30.9377
28.6841
26.5448
24.5507
22.7021
21.0107
19.4669
18.0741
16.8121
15.6671
14.6285
13.6866
12.8316
12.0525
11.3247
10.6782
10.0889
9.52164
9.36916
9.61251
10.316
11.27
10.0043
5.4945
1.31832
0.168856
0.01926
0.00304337
0.000572421
0.000107962
1.95942e-05
3.40985e-06
5.69974e-07
9.17028e-08
1.37855e-08
0.0203187
0.151387
0.586539
1.76028
4.44681
9.1492
15.3565
21.2869
25.8096
28.6459
30.1846
30.5356
30.2537
29.4502
28.2089
26.9214
25.441
23.9196
22.454
21.0336
19.6828
18.4104
17.2339
16.1419
15.1353
14.2057
13.3487
12.558
11.8239
11.1365
10.5248
9.96727
9.50902
9.40631
9.60023
10.1693
10.6582
9.0566
4.61069
1.03801
0.13081
0.015882
0.00265904
0.000512574
9.80721e-05
1.80216e-05
3.17335e-06
5.36447e-07
8.72436e-08
1.32445e-08
0.0112594
0.0621772
0.184841
0.449513
1.00491
2.12636
4.14745
7.12885
10.7266
14.1619
16.9735
18.977
20.2429
20.8904
20.9855
20.7617
20.2822
19.5693
18.8213
17.989
17.1121
16.2405
15.4043
14.5883
13.8043
13.0566
12.3487
11.6782
11.0452
10.4484
9.90394
9.4575
9.16564
9.07892
9.24523
9.75735
9.77972
7.8674
3.63604
0.757118
0.0950016
0.0125658
0.00224524
0.00044472
8.65067e-05
1.61274e-05
2.87876e-06
4.93011e-07
8.11833e-08
1.24643e-08
0.00690321
0.0314233
0.0771859
0.157795
0.297016
0.538939
0.965057
1.699
2.85561
4.46309
6.37111
8.33297
10.0922
11.5369
12.5943
13.298
13.7009
13.8354
13.7808
13.5853
13.2641
12.8832
12.4598
11.9854
11.4939
10.9963
10.5034
10.0228
9.56262
9.13089
8.75916
8.4912
8.33915
8.34142
8.56019
8.98887
8.58947
6.45098
2.61063
0.498258
0.0638169
0.00945101
0.00181235
0.000369718
7.32838e-05
1.38909e-05
2.51859e-06
4.37777e-07
7.31174e-08
1.13709e-08
0.00445517
0.017854
0.0387861
0.0704563
0.117567
0.187803
0.294259
0.458043
0.711804
1.0994
1.669
2.43692
3.35923
4.37963
5.39839
6.32738
7.11359
7.72577
8.16343
8.4473
8.59751
8.64222
8.60413
8.49478
8.33186
8.1323
7.91323
7.68978
7.47301
7.27368
7.1231
7.05642
7.09287
7.2524
7.57353
7.76679
7.06903
4.80812
1.64998
0.289039
0.0394613
0.00671408
0.00138237
0.000290866
5.88864e-05
1.1375e-05
2.0995e-06
3.71123e-07
6.29821e-08
9.9364e-09
0.00292566
0.0108247
0.0217761
0.0366743
0.0566569
0.0833469
0.119262
0.168245
0.236068
0.331063
0.464699
0.651348
0.907374
1.2416
1.65198
2.1203
2.62079
3.11343
3.56337
3.95486
4.2829
4.54765
4.75299
4.90395
5.00816
5.07601
5.11951
5.15085
5.18424
5.23431
5.32096
5.45977
5.66974
5.95788
6.24898
6.20748
5.29685
3.07219
0.877668
0.145141
0.0227028
0.00447634
0.00098382
0.000213514
4.42509e-05
8.73215e-06
1.64443e-06
2.96224e-07
5.11741e-08
8.20285e-09
0.00191842
0.00676608
0.0129968
0.020898
0.0308053
0.043147
0.0585186
0.0777865
0.102204
0.133522
0.174201
0.227327
0.296978
0.386884
0.501965
0.646954
0.822745
1.02376
1.23805
1.46251
1.69042
1.91583
2.13397
2.34161
2.5376
2.72323
2.90245
3.08073
3.26683
3.46953
3.69844
3.95787
4.24878
4.54404
4.68919
4.4251
3.40192
1.56265
0.3734
0.0642035
0.0122674
0.00276731
0.000643269
0.000143979
3.05993e-05
6.18251e-06
1.19051e-06
2.18992e-07
3.85842e-08
6.29387e-09
0.00123778
0.00425376
0.00796587
0.0124833
0.0179253
0.0244316
0.0321812
0.0414189
0.052491
0.0658941
0.0823187
0.102661
0.128082
0.159907
0.19943
0.248061
0.308907
0.383083
0.468019
0.56588
0.676684
0.799909
0.934728
1.08008
1.23523
1.40006
1.57563
1.76398
1.96822
2.19127
2.43305
2.68663
2.93123
3.09904
3.06469
2.66007
1.66666
0.588005
0.129822
0.0266372
0.00625483
0.00156117
0.000379756
8.76117e-05
1.91234e-05
3.96184e-06
7.8138e-07
1.47037e-07
2.64707e-08
4.40004e-09
0.000774397
0.00263491
0.00488571
0.00757968
0.0107653
0.0144929
0.0188216
0.0238311
0.0296361
0.0364067
0.0443923
0.0539496
0.0655662
0.0798403
0.0974513
0.119049
0.145966
0.17994
0.220188
0.267638
0.323643
0.388918
0.464188
0.550158
0.647436
0.756819
0.879294
1.01567
1.1663
1.32936
1.49824
1.65697
1.76964
1.78012
1.62378
1.17691
0.556973
0.167163
0.0414052
0.0107873
0.00294405
0.000785266
0.00019819
4.70936e-05
1.0566e-05
2.24713e-06
4.54373e-07
8.75559e-08
1.61242e-08
2.73308e-09
0.000461134
0.0015776
0.00294121
0.00458287
0.00652156
0.00876979
0.0113379
0.0142423
0.0175142
0.0212105
0.0254321
0.0303343
0.0361498
0.0432087
0.0519452
0.0628673
0.076681
0.0946502
0.116712
0.142941
0.174268
0.211155
0.254101
0.303626
0.36022
0.42424
0.495749
0.574192
0.657573
0.741215
0.815418
0.862635
0.861333
0.791328
0.60111
0.338992
0.135028
0.0432855
0.0134197
0.00414786
0.00122949
0.000342094
8.90489e-05
2.1765e-05
5.01759e-06
1.09534e-06
2.27074e-07
4.48157e-08
8.44486e-09
1.4589e-09
0.00025359
0.000896708
0.00172137
0.00274379
0.0039643
0.00537201
0.00695064
0.0086869
0.0105752
0.01262
0.0148641
0.0173728
0.020264
0.023733
0.028056
0.0335961
0.040786
0.0503474
0.0626783
0.0774208
0.0950133
0.115572
0.139152
0.165756
0.195247
0.227233
0.260843
0.294444
0.325156
0.348474
0.357361
0.349073
0.310517
0.237324
0.148706
0.0740513
0.0309577
0.0118052
0.00423041
0.00141032
0.000434849
0.000124428
3.32273e-05
8.3278e-06
1.96789e-06
4.40082e-07
9.33814e-08
1.88549e-08
3.63218e-09
6.37341e-10
0.00012124
0.000481497
0.000998743
0.00167637
0.00249129
0.00341397
0.00440891
0.0054535
0.00652071
0.0076133
0.00874337
0.00994333
0.0112661
0.012835
0.0148376
0.017457
0.0209478
0.0255681
0.0316911
0.0391661
0.047924
0.0579961
0.0691423
0.0810612
0.0933158
0.105283
0.116037
0.124424
0.128981
0.127779
0.120118
0.103283
0.079558
0.0537572
0.0315606
0.0162333
0.00743946
0.00306814
0.00114704
0.000391114
0.000122718
3.57305e-05
9.71793e-06
2.48225e-06
5.97951e-07
1.36317e-07
2.94829e-08
6.06512e-09
1.18957e-09
2.1041e-10
4.45629e-05
0.000268701
0.000663124
0.00118082
0.00176456
0.00239432
0.00301982
0.00360678
0.00416304
0.00468383
0.00517016
0.00562225
0.00614468
0.00679392
0.00760346
0.00865936
0.0101338
0.0120636
0.0145157
0.0175274
0.0210109
0.0250251
0.0291773
0.0332087
0.0367831
0.0395963
0.0412146
0.0412847
0.0401129
0.0368277
0.0313902
0.0247665
0.0178637
0.0114979
0.00656793
0.00337194
0.0015421
0.000632945
0.000235346
7.9985e-05
2.51068e-05
7.33422e-06
2.00689e-06
5.16927e-07
1.25694e-07
2.89258e-08
6.31806e-09
1.31239e-09
2.59976e-10
4.56299e-11
1.63804e-05
0.000279606
0.000604939
0.000935568
0.00128034
0.0016257
0.0019427
0.00224184
0.00252873
0.00277068
0.00296787
0.00312815
0.00326108
0.00340282
0.00360718
0.00392615
0.00440473
0.00506939
0.00591791
0.00693963
0.00810171
0.00934561
0.0106017
0.0117606
0.0126842
0.0132226
0.0132492
0.0126773
0.0115061
0.00980254
0.00778628
0.00573359
0.00388866
0.002413
0.00135545
0.000685971
0.000314523
0.000131777
5.1413e-05
1.88039e-05
5.53683e-06
1.26375e-06
3.18025e-07
9.77701e-08
2.60234e-08
4.85421e-09
9.21614e-10
1.86489e-10
4.17994e-11
6.88594e-12
)
;

boundaryField
{
    AXIS
    {
        type            empty;
    }
    OUTLET
    {
        type            zeroGradient;
    }
    COFLOW
    {
        type            calculated;
        value           uniform 0;
    }
    PILOT
    {
        type            calculated;
        value           uniform 0;
    }
    FUEL
    {
        type            calculated;
        value           uniform 0;
    }
    WALL
    {
        type            zeroGradient;
    }
    front
    {
        type            wedge;
    }
    back
    {
        type            wedge;
    }
}


// ************************************************************************* //
