/*--------------------------------*- C++ -*----------------------------------*\
| =========                 |                                                 |
| \\      /  F ield         | OpenFOAM: The Open Source CFD Toolbox           |
|  \\    /   O peration     | Version:  2.4.x                                 |
|   \\  /    A nd           | Web:      www.OpenFOAM.org                      |
|    \\/     M anipulation  |                                                 |
\*---------------------------------------------------------------------------*/
FoamFile
{
    version     2.0;
    format      ascii;
    class       volScalarField;
    location    "0.06";
    object      epsilon;
}
// * * * * * * * * * * * * * * * * * * * * * * * * * * * * * * * * * * * * * //

dimensions      [0 2 -3 0 0 0 0];

internalField   nonuniform List<scalar> 
1250
(
76.217
136.078
196.295
280.387
388.732
512.361
636.86
757.253
850.609
926.225
986.41
1021.95
1047.78
1051.21
1047.55
1031.92
1009.06
978.645
945.52
908.53
866.873
825.494
783.102
743.765
702.932
664.009
625.665
589.569
555.454
522.737
492.068
466.768
435.114
416.317
426.352
495.253
744.568
1190.67
1061.7
450.711
89.7627
22.1807
10.9721
9.08775
8.76565
8.70614
8.69138
8.68589
8.6833
8.68099
80.2121
146.395
221.123
325.836
455.482
596.273
735.359
854.629
947.185
1015.55
1067.4
1098.35
1112.97
1110.77
1099.56
1075.61
1046.22
1012.25
973.696
932.129
888.24
843.435
799.354
757.611
715.875
675.014
635.578
598.29
563.383
529.686
498.484
472.349
440.363
420.486
430.387
499.537
753.29
1188.19
1058.57
448.488
89.3742
22.1128
10.9574
9.08338
8.76312
8.70392
8.68924
8.68382
8.68127
8.679
88.0669
177.078
300.891
469.091
657.659
837.99
990.437
1104.5
1182.36
1230.73
1261.45
1269.84
1263.31
1243.71
1210.91
1170.82
1128.57
1083.15
1034.44
984.089
933.098
882.278
833.378
787.623
742.544
698.563
656.479
616.894
579.957
544.587
511.84
484.296
451.16
429.672
439.228
508.757
764.488
1182.7
1050.1
440.57
87.8936
21.8784
10.9157
9.07298
8.75787
8.69952
8.68506
8.67978
8.67735
8.67511
104.864
271.659
545.534
872.842
1156.48
1368.48
1503.32
1579.98
1605.07
1600.18
1583.43
1548.15
1499.64
1443.34
1380.09
1314.56
1251.44
1187.98
1123.8
1060.41
998.848
939.199
883.104
831.071
781.162
732.846
686.829
643.925
604.029
566.252
531.26
501.697
466.9
443.437
452.655
523.39
783.8
1175.86
1036.74
425.971
85.1793
21.458
10.8443
9.05653
8.75022
8.69329
8.67919
8.67414
8.67188
8.66967
200.26
696.605
1385.2
1972.65
2267.94
2391.37
2384.41
2336.43
2235.69
2128.4
2025.77
1919.43
1810.31
1702.33
1596.18
1496.71
1406.08
1319.01
1235.17
1155.5
1080.6
1009.92
944.759
884.971
828.57
775.096
724.529
677.43
633.96
593.202
555.439
523.447
486.543
461.048
469.988
542.726
809.252
1166.65
1018.09
404.511
81.3014
20.862
10.7445
9.03411
8.74008
8.68513
8.67153
8.66681
8.66478
8.66259
1116.01
2830.11
3975.22
4108.34
4031.57
3834.7
3540.83
3257.36
2986.76
2748.79
2537.48
2340.87
2157.14
1988.85
1835.2
1698.44
1576.87
1463.46
1357.9
1260.44
1170.89
1088.13
1013
944.699
881.149
821.787
766.472
715.001
667.572
623.545
582.784
548.145
508.842
481.68
490.36
566.315
839.393
1154.06
993.664
376.866
76.4459
20.1112
10.619
9.00609
8.72738
8.67491
8.66197
8.65768
8.65591
8.6537
1209.58
4163.37
5453.24
5514.32
5305.05
4975.11
4496.78
4050.03
3648.94
3304.97
2999.99
2724.55
2477.23
2257.7
2061.52
1890.73
1740.54
1602.73
1476.99
1362.91
1259.5
1165.31
1080.67
1004.29
933.952
868.819
808.765
753.258
702.185
654.87
611.198
573.978
532.255
504.258
513.082
592.587
871.731
1136.85
961.519
345.083
70.8582
19.2363
10.4724
8.97302
8.71209
8.66249
8.65036
8.64661
8.64513
8.64284
497.479
2393.89
4472.89
5236.01
5313.12
5157.79
4800.93
4388.03
3989.37
3625.93
3287.96
2978.16
2699.62
2451.51
2231.39
2039.8
1870.05
1715.23
1574.81
1448.38
1334.52
1231.74
1139.74
1057.01
981.221
911.32
847.24
788.3
734.399
684.334
638.257
598.815
554.998
527.518
537.737
620.032
902.565
1112.95
920.016
311.411
64.8095
18.277
10.3104
8.93559
8.69415
8.64772
8.63656
8.63344
8.63223
8.62979
249.625
1018.31
2490.35
3702.14
4306.51
4491.22
4418.11
4198.37
3913.26
3614.55
3315.99
3030.62
2765.92
2524.15
2306.9
2115.55
1941.82
1780.99
1634.94
1503.43
1384.99
1278.17
1182.38
1096.1
1016.98
944.047
877.384
816.194
760.53
708.762
661.318
620.26
575.213
549.986
563.008
647.271
928.508
1082.2
867.881
278.057
58.565
17.2774
10.139
8.89459
8.67353
8.63044
8.62038
8.61796
8.61697
8.61429
148.996
364.803
963.87
1897.28
2713.27
3223.74
3472.73
3518.2
3456.11
3302.99
3104.92
2888.08
2672.85
2467.12
2277.6
2104.79
1940.45
1786.04
1645.51
1517.91
1402
1296.76
1201.63
1115.18
1035.46
961.949
894.779
833.132
777.154
725.023
677.618
635.899
591.119
569.989
587.459
672.458
946.235
1044.17
807.671
245.158
52.4127
16.2808
9.96506
8.85083
8.65016
8.61046
8.60161
8.59989
8.59901
8.59595
32.0687
110.257
305.811
711.798
1306.26
1878.22
2300.74
2557.65
2682.83
2684.8
2638.44
2533.81
2406.96
2270.85
2134.28
1998.34
1859.89
1726.44
1602.34
1487
1380.27
1281.94
1191.88
1109.01
1032.05
960.914
895.743
835.875
781.332
730.568
684.872
643.788
601.509
586.237
608.554
695.812
952.461
997.938
738.595
213.329
46.4092
15.2944
9.78909
8.80378
8.62334
8.58708
8.5795
8.57844
8.57757
8.57402
17.1668
42.8717
101.844
222.136
454.03
810.14
1196.4
1525.09
1765.12
1909.45
1984.09
1992.39
1970.73
1918.61
1844.89
1760.13
1667.6
1574.04
1481.63
1391.11
1303.87
1220.88
1142.82
1069.33
1000.08
935.454
875.659
820.239
769.288
721.922
679.821
641.187
604.602
596.843
623.31
719.39
943.541
940.955
656.927
180.749
40.2923
14.2804
9.60339
8.75127
8.59191
8.55934
8.55308
8.55259
8.55167
8.54763
13.1965
23.532
42.3731
76.619
140.629
254.781
444.023
676.826
906.606
1101.1
1248.22
1346.21
1405.69
1431.25
1427.13
1408.01
1369.94
1323.23
1270.98
1214.31
1155.33
1095.84
1037.3
980.104
924.823
872.12
822.378
775.66
732.086
691.572
656.097
623.512
597.181
597.035
629.249
739.643
912.909
869.628
559.369
146.126
34.0003
13.2245
9.40453
8.69277
8.55597
8.52754
8.5225
8.52232
8.52138
8.51714
11.6083
16.4143
23.8378
34.9717
52.8444
83.194
134.705
216.386
334.497
469.701
604.337
724.962
823.912
898.894
949.013
979.832
993.074
991.752
982.958
963.49
936.877
906.022
872.427
836.795
800.378
764.015
728.551
694.455
662.222
632.43
606.671
584.849
573.838
581.865
622.921
744.45
854.291
779.867
443.836
110.755
27.7634
12.1571
9.19744
8.62981
8.51678
8.49278
8.48862
8.48849
8.48772
8.48373
10.8431
13.2643
16.6621
21.199
27.4044
36.3505
50.0305
71.4548
103.984
151.132
214.148
287.874
364.528
438.114
503.193
557.522
600.428
631.754
653.075
665.006
667.566
664.812
657.117
644.506
629.177
611.901
593.86
575.724
558.529
543.308
531.246
525.397
528.648
548.137
603.431
720.041
767.59
668.848
315.14
77.6923
21.9734
11.1324
8.99126
8.56468
8.47563
8.45612
8.45269
8.45234
8.45175
8.44839
10.4378
11.6829
13.3676
15.4947
18.1608
21.5859
26.1558
32.4614
41.3044
53.8042
71.4656
95.0903
125.216
161.183
200.979
242.179
282.201
318.818
350.602
376.76
396.944
412.031
422.75
429.446
432.871
433.874
433.525
432.659
432.393
433.386
437.239
446.539
464.61
499.475
566.891
650.997
650.939
519.542
198.45
50.7128
17.0864
10.2251
8.7989
8.50016
8.43368
8.4185
8.416
8.41541
8.41456
8.41156
10.2113
10.8315
11.686
12.7546
14.0497
15.6145
17.5346
19.9392
22.9931
26.9237
32.0721
38.713
47.2848
58.1633
71.6195
87.914
106.709
127.391
148.904
170.15
190.406
209.291
226.703
242.527
256.865
270.01
282.451
294.748
307.787
322.394
340.003
362.181
392.343
436.833
498.729
538.662
507.631
338.441
110.777
31.3928
13.4378
9.5019
8.63294
8.43871
8.39159
8.3804
8.37889
8.37809
8.37644
8.37315
10.0836
10.3629
10.7878
11.3375
12.0102
12.8123
13.7619
14.8907
16.243
17.8757
19.8596
22.256
25.1819
28.7636
33.1279
38.5095
45.0809
53.075
62.5723
73.4168
85.4214
98.4188
112.266
126.769
141.829
157.44
173.764
191.055
209.873
230.797
254.784
282.801
316.988
358.869
397.439
399.633
342.595
174.157
54.6678
19.4457
11.0001
8.97926
8.49828
8.38065
8.34874
8.34072
8.33965
8.33842
8.33579
8.33249
10.0138
10.1193
10.3222
10.6105
10.9806
11.4317
11.9678
12.5981
13.3378
14.2086
15.2402
16.4685
17.9385
19.691
21.7874
24.2884
27.3004
31.0208
35.6143
41.1524
47.7143
55.3799
64.2047
74.2176
85.4676
98.0158
111.974
127.545
145.019
164.765
187.105
212.202
239.929
265.659
274.205
254.59
175.891
72.573
26.3503
13.1113
9.5674
8.63461
8.3907
8.32295
8.30198
8.296
8.29428
8.29203
8.2892
8.2864
9.98605
10.0248
10.1331
10.3078
10.541
10.8298
11.1756
11.5837
12.0649
12.6354
13.3181
14.1438
15.1458
16.3631
17.8338
19.5777
21.6558
24.1621
27.1858
30.7821
35.03
40.0154
45.8223
52.5416
60.2531
69.0442
79.0392
90.3398
103.067
117.214
132.498
148.138
161.428
166.027
157.624
122.936
66.3546
28.8208
14.6152
10.1489
8.80641
8.41336
8.29644
8.25763
8.24362
8.2392
8.23713
8.23388
8.23029
8.22791
10.0004
10.0658
10.1888
10.3602
10.5631
10.7924
11.0489
11.3398
11.6777
12.0804
12.5723
13.182
13.9394
14.8785
16.0307
17.4276
19.1035
21.0896
23.4318
26.1459
29.2573
32.8003
36.8086
41.3163
46.3591
51.9655
58.1366
64.8363
71.9252
79.0732
85.5874
89.8896
90.1135
84.5888
68.0157
44.0256
24.2351
14.1906
10.2616
8.87508
8.40683
8.24944
8.19259
8.16914
8.1592
8.15511
8.15177
8.14802
8.14495
8.14348
10.0919
10.3482
10.6469
10.9392
11.2
11.4237
11.6178
11.7999
11.9905
12.2088
12.4895
12.8554
13.3353
13.9629
14.7656
15.7674
16.9901
18.4656
20.2189
22.2244
24.4541
26.8858
29.4924
32.2461
35.1118
38.034
40.9219
43.6272
45.8946
47.3102
47.4537
45.9516
41.3717
33.927
24.9663
17.1045
12.1616
9.73405
8.70648
8.30198
8.14341
8.07788
8.04709
8.03122
8.02306
8.01862
8.01348
8.01129
8.01157
8.01077
10.5076
11.4891
12.3179
12.9454
13.3191
13.4855
13.4906
13.4105
13.2736
13.1426
13.0501
13.0205
13.0641
13.2238
13.5464
14.0157
14.6605
15.4942
16.519
17.7179
19.0491
20.4471
21.8292
23.1307
24.2893
25.2374
25.8823
26.1283
25.9648
25.0804
23.2955
20.8001
17.7461
14.5834
11.8741
9.97628
8.87352
8.31613
8.05717
7.9366
7.87673
7.84391
7.82399
7.81128
7.80322
7.79789
7.7924
7.79086
7.79161
7.79105
13.9923
18.5628
20.5941
21.2038
20.8659
20.1407
19.0828
17.8711
16.7483
15.7297
14.8106
13.959
13.3512
12.947
12.6425
12.4364
12.4419
12.5881
12.8493
13.2087
13.7069
14.3126
14.8146
15.1717
15.3412
15.3243
15.1249
14.689
14.0287
13.1827
12.1997
11.1765
10.2209
9.30746
8.55068
8.13036
7.89337
7.77645
7.7122
7.66391
7.63019
7.60652
7.58963
7.57746
7.56876
7.56223
7.55696
7.55299
7.55031
7.54794
148.915
119.684
90.3991
70.7392
57.0186
47.3927
38.8612
32.6462
28.6843
25.3316
22.4595
19.9849
17.8492
16.0507
14.6118
13.5422
12.8289
12.4251
12.2576
12.2703
12.4067
12.6021
12.8068
12.973
13.0588
13.0328
12.877
12.5826
12.1764
11.7074
11.2248
10.7743
10.3889
10.082
9.84737
9.67489
9.55349
9.46857
9.40904
9.36478
9.33076
9.30395
9.28333
9.26791
9.25662
9.24783
9.24065
9.23513
9.23153
9.22837
)
;

boundaryField
{
    AXIS
    {
        type            empty;
    }
    OUTLET
    {
        type            zeroGradient;
    }
    COFLOW
    {
        type            fixedValue;
        value           uniform 10;
    }
    PILOT
    {
        type            fixedValue;
        value           uniform 10;
    }
    FUEL
    {
        type            fixedValue;
        value           uniform 50;
    }
    WALL
    {
        type            compressible::epsilonWallFunction;
        Cmu             0.09;
        kappa           0.41;
        E               9.8;
        value           nonuniform List<scalar> 
50
(
148.915
119.684
90.3991
70.7392
57.0186
47.3927
38.8612
32.6462
28.6843
25.3316
22.4595
19.9849
17.8492
16.0507
14.6118
13.5422
12.8289
12.4251
12.2576
12.2703
12.4067
12.6021
12.8068
12.973
13.0588
13.0328
12.877
12.5826
12.1764
11.7074
11.2248
10.7743
10.3889
10.082
9.84737
9.67489
9.55349
9.46857
9.40904
9.36478
9.33076
9.30395
9.28333
9.26791
9.25662
9.24783
9.24065
9.23513
9.23153
9.22837
)
;
    }
    front
    {
        type            wedge;
    }
    back
    {
        type            wedge;
    }
}


// ************************************************************************* //
