/*--------------------------------*- C++ -*----------------------------------*\
| =========                 |                                                 |
| \\      /  F ield         | OpenFOAM: The Open Source CFD Toolbox           |
|  \\    /   O peration     | Version:  2.4.x                                 |
|   \\  /    A nd           | Web:      www.OpenFOAM.org                      |
|    \\/     M anipulation  |                                                 |
\*---------------------------------------------------------------------------*/
FoamFile
{
    version     2.0;
    format      ascii;
    class       volScalarField;
    location    "0.06";
    object      k;
}
// * * * * * * * * * * * * * * * * * * * * * * * * * * * * * * * * * * * * * //

dimensions      [0 2 -2 0 0 0 0];

internalField   nonuniform List<scalar> 
1250
(
5.557
5.94528
5.90679
5.98249
6.20634
6.53003
6.8333
7.09654
7.21785
7.28469
7.29629
7.26735
7.20694
7.08347
6.94666
6.76571
6.598
6.41571
6.23223
6.04021
5.83628
5.63698
5.44007
5.26112
5.07565
4.89857
4.72036
4.56038
4.40176
4.24378
4.12815
3.98139
3.83831
3.8417
3.9936
4.60621
6.78816
9.61532
8.63965
4.20745
1.19712
0.556625
0.43601
0.411971
0.406899
0.40579
0.405574
0.405527
0.405478
0.405313
5.60991
5.9419
5.95986
6.11361
6.41225
6.77969
7.12169
7.35222
7.46353
7.50414
7.49705
7.45707
7.36694
7.2318
7.06822
6.87979
6.69505
6.50675
6.30946
6.10663
5.89973
5.69217
5.49296
5.30861
5.12324
4.94072
4.7604
4.59725
4.43692
4.27634
4.15964
4.00997
3.86616
3.86674
4.01936
4.63598
6.8503
9.60782
8.6234
4.18891
1.19349
0.555969
0.435823
0.41188
0.406828
0.405723
0.405509
0.405462
0.405413
0.405247
5.61215
5.92254
6.14403
6.53858
7.03694
7.47816
7.80806
7.97605
8.03871
8.02327
7.96945
7.86605
7.72185
7.54176
7.33636
7.11688
6.90605
6.69351
6.47408
6.25224
6.03085
5.8111
5.60248
5.41074
5.21994
5.03072
4.84442
4.67577
4.51012
4.34621
4.22522
4.07108
3.92464
3.9209
4.07576
4.70154
6.94679
9.59002
8.57796
4.12842
1.18066
0.553728
0.435311
0.411673
0.406681
0.405588
0.405376
0.40533
0.405282
0.405117
5.42619
6.03665
6.8056
7.70533
8.43213
8.85253
9.07955
9.0949
9.02824
8.87633
8.70123
8.49696
8.26222
8.0071
7.73675
7.46667
7.21471
6.96498
6.71323
6.46431
6.22174
5.98449
5.76173
5.55675
5.35819
5.16114
4.966
4.78951
4.6161
4.44778
4.32041
4.15988
4.01184
4.0055
4.16356
4.80538
7.10382
9.56684
8.50343
4.01888
1.15746
0.549744
0.43445
0.411356
0.406465
0.405394
0.405187
0.405142
0.405094
0.404932
5.58485
7.05709
9.10181
10.5543
11.1134
11.1584
11.0349
10.733
10.3608
9.99598
9.65246
9.30276
8.94569
8.58819
8.23242
7.8979
7.59392
7.29728
7.00646
6.72522
6.45656
6.1979
5.95739
5.73633
5.52509
5.31962
5.11649
4.92998
4.74764
4.57423
4.43877
4.27096
4.12321
4.11612
4.28013
4.94523
7.30936
9.5309
8.39706
3.8586
1.12436
0.544085
0.433247
0.410927
0.40618
0.405138
0.404938
0.404894
0.404848
0.404689
9.01542
12.9043
14.9882
14.9197
14.6064
13.9403
13.2147
12.4983
11.8172
11.2195
10.6815
10.1665
9.67083
9.20191
8.76091
8.36119
8.00117
7.65485
7.32291
7.00822
6.71206
6.43084
6.17136
5.93323
5.70799
5.4918
5.28207
5.08709
4.89523
4.71699
4.57272
4.39784
4.25382
4.24847
4.42222
5.11831
7.55197
9.47379
8.2494
3.65491
1.08279
0.536914
0.431725
0.410389
0.405823
0.404819
0.404626
0.404584
0.40454
0.404386
7.14417
14.7127
17.1199
17.0771
16.6586
15.7418
14.7717
13.8313
12.9654
12.2138
11.5305
10.8913
10.2964
9.74807
9.23918
8.78509
8.37676
7.98798
7.62088
7.27744
6.95703
6.65614
6.37993
6.12695
5.88953
5.66292
5.4466
5.24581
5.04756
4.86536
4.71244
4.53268
4.3975
4.39653
4.58555
5.32127
7.81384
9.38583
8.05026
3.41834
1.03454
0.528476
0.429924
0.409746
0.405392
0.404431
0.404248
0.404208
0.404165
0.404016
3.15219
9.91579
14.3733
15.8909
16.0925
15.6883
15.0084
14.1969
13.3982
12.6653
11.9626
11.2949
10.6716
10.0936
9.56299
9.08815
8.65269
8.23973
7.85169
7.49085
7.15562
6.84338
6.55693
6.2945
6.04916
5.81534
5.59438
5.3896
5.18951
5.00679
4.84703
4.66687
4.54669
4.55265
4.76495
5.55207
8.06768
9.25482
7.78964
3.16227
0.981747
0.519113
0.427898
0.409004
0.404885
0.403972
0.403798
0.40376
0.403719
0.403577
2.21455
5.44673
9.2786
12.0132
13.4542
13.923
13.8468
13.5071
12.9786
12.4244
11.8308
11.2407
10.6718
10.1349
9.63987
9.19285
8.76807
8.35627
7.96941
7.60955
7.27479
6.96336
6.67657
6.41267
6.16526
5.92946
5.70826
5.50292
5.30518
5.12678
4.96495
4.79107
4.69234
4.70932
4.9548
5.82112
8.2745
9.07677
7.45638
2.90274
0.92658
0.509217
0.425703
0.408169
0.404299
0.403436
0.403272
0.403236
0.403197
0.403062
2.01102
2.73888
4.67903
7.30603
9.43764
10.7606
11.436
11.6972
11.6487
11.4539
11.104
10.7092
10.2868
9.85867
9.45364
9.07227
8.68615
8.30302
7.94192
7.60309
7.28586
6.98974
6.71464
6.45826
6.21616
5.9858
5.77082
5.5707
5.38052
5.2112
5.05414
4.89592
4.82448
4.85779
5.14517
6.11523
8.40736
8.84988
7.06462
2.64121
0.871718
0.499181
0.423404
0.407248
0.403631
0.402819
0.402664
0.402629
0.402593
0.402465
1.15441
1.52388
2.23503
3.64697
5.5076
7.16829
8.3719
9.16509
9.59698
9.7777
9.75291
9.64246
9.43392
9.18716
8.93146
8.65663
8.35135
8.04005
7.7395
7.4482
7.1682
6.90142
6.64953
6.41096
6.18379
5.968
5.76679
5.57933
5.40336
5.24919
5.10559
4.97459
4.93583
4.99384
5.33196
6.42415
8.44414
8.57009
6.60783
2.38067
0.8177
0.489039
0.42099
0.406219
0.402857
0.402096
0.40195
0.401917
0.401883
0.401762
1.04
1.16349
1.36304
1.78893
2.67127
3.90873
5.16501
6.22767
7.01261
7.55737
7.87548
8.05252
8.09691
8.0703
7.99024
7.84749
7.67084
7.47961
7.27589
7.06395
6.84964
6.63768
6.43068
6.22901
6.03389
5.84757
5.67296
5.50911
5.35606
5.22488
5.10578
5.01692
5.01658
5.11543
5.51413
6.72909
8.37557
8.218
6.04608
2.11147
0.761666
0.47831
0.418328
0.405025
0.401937
0.401231
0.401095
0.401063
0.401031
0.400916
1.01175
1.04951
1.0948
1.19058
1.4165
1.86308
2.59757
3.46649
4.30263
5.02585
5.58498
6.00926
6.30122
6.49323
6.60399
6.6356
6.62098
6.57572
6.49266
6.38509
6.26237
6.13015
5.99105
5.84855
5.70655
5.56801
5.43691
5.31338
5.19973
5.10722
5.03298
5.00015
5.03984
5.20136
5.69647
6.97104
8.18608
7.7603
5.34732
1.81754
0.702252
0.466667
0.415326
0.403635
0.400856
0.40021
0.400086
0.400056
0.400024
0.399915
1.00054
1.00449
1.00745
1.01778
1.05474
1.14861
1.34226
1.68425
2.18048
2.74626
3.30747
3.82274
4.25855
4.61149
4.88635
5.08546
5.22696
5.32481
5.37699
5.38887
5.37786
5.34644
5.29416
5.23068
5.16101
5.08862
5.01834
4.95223
4.89534
4.85936
4.85407
4.88425
4.98763
5.24496
5.84881
7.06471
7.81468
7.1607
4.48443
1.50533
0.640798
0.454208
0.411989
0.402051
0.399617
0.399039
0.398928
0.398901
0.398868
0.39876
0.995227
0.985736
0.974463
0.962968
0.955827
0.960894
0.987932
1.05537
1.18155
1.38618
1.68064
2.03064
2.40002
2.76014
3.09206
3.38195
3.62917
3.83705
4.00226
4.12812
4.22362
4.29204
4.33687
4.36512
4.38156
4.39025
4.39749
4.40652
4.42573
4.46715
4.54006
4.65718
4.85674
5.2209
5.91099
6.91459
7.23152
6.37387
3.47352
1.19805
0.580183
0.441328
0.408373
0.400275
0.398212
0.397707
0.397608
0.397581
0.397546
0.397437
0.992694
0.97753
0.960987
0.943146
0.925101
0.909066
0.897631
0.896287
0.908735
0.942231
1.00661
1.10813
1.26088
1.45199
1.67233
1.90851
2.14616
2.3758
2.58775
2.77627
2.94297
3.08883
3.21624
3.32902
3.43025
3.52457
3.6178
3.71431
3.82354
3.955
4.12005
4.33319
4.63253
5.08733
5.77463
6.46349
6.4126
5.27526
2.46897
0.928288
0.525369
0.428863
0.404583
0.398291
0.396605
0.396166
0.396072
0.396042
0.396004
0.395898
0.991501
0.973969
0.955379
0.935583
0.914805
0.893665
0.87309
0.854561
0.839187
0.828928
0.827838
0.836374
0.85962
0.902166
0.968804
1.06554
1.18746
1.33313
1.49543
1.66447
1.83543
2.00497
2.17183
2.33572
2.49744
2.65914
2.8242
2.99671
3.18431
3.3947
3.63909
3.93
4.29571
4.77359
5.34156
5.64867
5.33025
3.84023
1.6311
0.71795
0.479796
0.417455
0.400674
0.396024
0.394693
0.394307
0.3942
0.394159
0.39412
0.394024
0.990986
0.972507
0.953159
0.93279
0.911398
0.889149
0.866365
0.843544
0.821244
0.800175
0.781164
0.764861
0.753581
0.751116
0.757691
0.776959
0.812792
0.872332
0.960071
1.06756
1.19173
1.3303
1.48143
1.64317
1.81469
1.99606
2.18869
2.39492
2.61978
2.86816
3.14756
3.46436
3.82923
4.23598
4.5689
4.55562
3.98056
2.36698
1.03188
0.573088
0.44451
0.407389
0.396547
0.393273
0.392246
0.391896
0.391758
0.391693
0.391649
0.391568
0.990787
0.971933
0.952283
0.931705
0.910151
0.887659
0.864356
0.84045
0.816182
0.791888
0.768095
0.745586
0.725551
0.709532
0.699999
0.699372
0.707359
0.731923
0.781488
0.849406
0.934387
1.03583
1.15298
1.28504
1.43172
1.59309
1.76954
1.96249
2.17407
2.40654
2.66092
2.9342
3.21659
3.45632
3.51273
3.2808
2.45838
1.29369
0.684502
0.483088
0.418922
0.398436
0.391824
0.389583
0.388782
0.388451
0.388276
0.388179
0.388119
0.388048
0.990694
0.971581
0.951609
0.930669
0.908724
0.885796
0.861974
0.837397
0.812255
0.786815
0.761473
0.736885
0.713891
0.694028
0.679375
0.67238
0.674077
0.68716
0.720744
0.771198
0.83552
0.913252
1.00383
1.10689
1.22213
1.34929
1.4887
1.64021
1.80381
1.97759
2.15586
2.32705
2.46022
2.49009
2.37071
1.95178
1.25885
0.738391
0.513087
0.430068
0.400149
0.389497
0.385579
0.38402
0.383354
0.383012
0.382795
0.382669
0.382598
0.382533
0.99057
0.970952
0.950203
0.92825
0.905114
0.880891
0.855733
0.829828
0.803394
0.776707
0.75009
0.724061
0.699321
0.677135
0.659437
0.649058
0.648086
0.655836
0.680105
0.720214
0.771281
0.832215
0.901867
0.979195
1.06332
1.15342
1.24828
1.3463
1.44456
1.53766
1.61642
1.66031
1.65139
1.56039
1.32574
0.98608
0.681401
0.508158
0.429791
0.397044
0.383756
0.378335
0.375945
0.374772
0.374156
0.373769
0.373506
0.373364
0.373299
0.373231
0.990287
0.969429
0.946729
0.922245
0.896217
0.86895
0.840772
0.812004
0.782927
0.753841
0.725022
0.696862
0.669984
0.645444
0.624915
0.610748
0.605504
0.608626
0.623309
0.652967
0.691138
0.735782
0.785028
0.837141
0.890462
0.943186
0.993156
1.03762
1.0724
1.09107
1.08899
1.05789
0.978546
0.854605
0.702498
0.561453
0.464024
0.40953
0.382547
0.369912
0.363985
0.361049
0.359424
0.358436
0.357823
0.357378
0.357066
0.356898
0.356821
0.356742
0.989752
0.965666
0.937734
0.906836
0.874103
0.840256
0.805989
0.771827
0.738149
0.705172
0.673057
0.642055
0.612679
0.585669
0.562277
0.54438
0.53407
0.532366
0.537324
0.553071
0.576933
0.604362
0.633117
0.661183
0.68667
0.707747
0.722314
0.728184
0.725341
0.708856
0.674481
0.625632
0.565075
0.500456
0.44176
0.396873
0.367494
0.350282
0.340867
0.335696
0.332705
0.330819
0.329544
0.328651
0.328045
0.327571
0.327207
0.326981
0.326868
0.326774
0.988815
0.953249
0.905979
0.855237
0.807762
0.760333
0.715147
0.672946
0.633901
0.597438
0.563207
0.531142
0.501224
0.473774
0.449868
0.430982
0.418476
0.413042
0.413157
0.417472
0.427631
0.439441
0.451162
0.461304
0.468436
0.47139
0.47039
0.463381
0.448198
0.427657
0.402975
0.376422
0.350849
0.328547
0.310834
0.297905
0.289207
0.283557
0.279895
0.277403
0.275609
0.274246
0.273225
0.272463
0.271925
0.271493
0.271123
0.27086
0.270725
0.270632
0.975756
0.843479
0.69956
0.594049
0.51451
0.45484
0.398469
0.35477
0.325457
0.299579
0.276485
0.255786
0.23722
0.220997
0.20757
0.197294
0.190283
0.18625
0.184558
0.184674
0.186035
0.187983
0.190017
0.191665
0.19252
0.192277
0.190756
0.18785
0.183795
0.179049
0.174094
0.169399
0.165327
0.162044
0.159513
0.157637
0.15631
0.155378
0.154724
0.154236
0.153861
0.153565
0.153338
0.153167
0.153042
0.152945
0.152865
0.152804
0.152764
0.152729
)
;

boundaryField
{
    AXIS
    {
        type            empty;
    }
    OUTLET
    {
        type            zeroGradient;
    }
    COFLOW
    {
        type            fixedValue;
        value           uniform 1;
    }
    PILOT
    {
        type            fixedValue;
        value           uniform 1;
    }
    FUEL
    {
        type            fixedValue;
        value           uniform 5;
    }
    WALL
    {
        type            compressible::kqRWallFunction;
        value           nonuniform List<scalar> 
50
(
0.975756
0.843479
0.69956
0.594049
0.51451
0.45484
0.398469
0.35477
0.325457
0.299579
0.276485
0.255786
0.23722
0.220997
0.20757
0.197294
0.190283
0.18625
0.184558
0.184674
0.186035
0.187983
0.190017
0.191665
0.19252
0.192277
0.190756
0.18785
0.183795
0.179049
0.174094
0.169399
0.165327
0.162044
0.159513
0.157637
0.15631
0.155378
0.154724
0.154236
0.153861
0.153565
0.153338
0.153167
0.153042
0.152945
0.152865
0.152804
0.152764
0.152729
)
;
    }
    front
    {
        type            wedge;
    }
    back
    {
        type            wedge;
    }
}


// ************************************************************************* //
