/*--------------------------------*- C++ -*----------------------------------*\
| =========                 |                                                 |
| \\      /  F ield         | OpenFOAM: The Open Source CFD Toolbox           |
|  \\    /   O peration     | Version:  2.4.x                                 |
|   \\  /    A nd           | Web:      www.OpenFOAM.org                      |
|    \\/     M anipulation  |                                                 |
\*---------------------------------------------------------------------------*/
FoamFile
{
    version     2.0;
    format      ascii;
    class       volScalarField;
    location    "0.06";
    object      mut;
}
// * * * * * * * * * * * * * * * * * * * * * * * * * * * * * * * * * * * * * //

dimensions      [1 -1 -1 0 0 0 0];

internalField   nonuniform List<scalar> 
1250
(
0.0365542
0.0208665
0.0128068
0.00837528
0.00598263
0.0046673
0.0038478
0.00328616
0.00285658
0.00250578
0.00222126
0.00201118
0.00182727
0.00166978
0.00153358
0.00140716
0.0013088
0.00122544
0.00115136
0.00108402
0.00102275
0.000967016
0.000917344
0.000877015
0.000836242
0.000798579
0.000763177
0.00073429
0.000706408
0.000679612
0.000666467
0.000638645
0.000621367
0.000639926
0.000666382
0.000751473
0.00108811
0.00147252
0.00182264
0.00163554
0.00116066
0.00135299
0.00180597
0.00197634
0.00200491
0.0020088
0.00201029
0.00201113
0.00201125
0.00201015
0.0351341
0.0190104
0.011333
0.0073676
0.00534149
0.00424546
0.00356359
0.00308474
0.00269071
0.00238112
0.00213063
0.00193927
0.00177078
0.0016249
0.00149344
0.0013793
0.00128559
0.0012064
0.00113509
0.0010704
0.00101143
0.000957475
0.000909529
0.00087058
0.000832632
0.000795527
0.000760945
0.000732487
0.000705165
0.000678811
0.000665992
0.000638442
0.000621292
0.000640324
0.00066738
0.000753528
0.00109511
0.00147598
0.00182649
0.00163374
0.00116061
0.00135463
0.00180702
0.00197645
0.00200479
0.00200865
0.00201014
0.00201096
0.00201107
0.00200995
0.0312988
0.0148329
0.00838107
0.00555217
0.00424867
0.00353258
0.00306496
0.0026862
0.0023931
0.0021561
0.00196152
0.00180173
0.00165934
0.00153185
0.0014203
0.001321
0.0012383
0.00116698
0.00110189
0.00104234
0.000987813
0.000937763
0.000893127
0.0008571
0.00082404
0.000789105
0.00075604
0.000728605
0.000702306
0.000677072
0.000664822
0.00063793
0.00062164
0.000641031
0.000669608
0.000758455
0.00110929
0.00148425
0.00183516
0.00162753
0.00116044
0.00136002
0.00181014
0.00197682
0.00200456
0.00200833
0.00200979
0.00201059
0.00201068
0.00200956
0.0229895
0.00902188
0.00511537
0.00380028
0.003219
0.00280484
0.00252324
0.0022709
0.0020798
0.00190772
0.00176014
0.00163703
0.00152533
0.00142265
0.00132958
0.00124639
0.00117685
0.00111509
0.00105767
0.00100467
0.000956079
0.00091115
0.00087102
0.000838459
0.000808934
0.000780395
0.000749165
0.000723394
0.000698288
0.000674736
0.00066328
0.000637315
0.000622861
0.000643887
0.000673951
0.000766717
0.00113168
0.00149719
0.00184816
0.00161548
0.00116014
0.00136998
0.00181565
0.00197752
0.00200422
0.00200785
0.00200927
0.00201003
0.00201009
0.00200899
0.010166
0.00385085
0.00306862
0.00273279
0.00250005
0.00227499
0.00212274
0.00194944
0.00180607
0.00168148
0.00157658
0.00148158
0.00139393
0.00131248
0.00123629
0.00116705
0.00111013
0.00105743
0.00100819
0.00096232
0.000920094
0.000880878
0.000845493
0.000816637
0.000790677
0.000766249
0.000741018
0.000716968
0.00069344
0.00067211
0.000661479
0.000636627
0.0006253
0.000648432
0.000680769
0.000779076
0.00116194
0.00151452
0.00186444
0.00159655
0.0011599
0.00138469
0.00182348
0.00197851
0.00200377
0.00200721
0.00200858
0.00200927
0.00200929
0.00200822
0.00220883
0.00227098
0.00228073
0.00216737
0.00206339
0.00191479
0.00179767
0.00168114
0.00157738
0.0014892
0.0014157
0.00134506
0.00127785
0.00121048
0.0011474
0.0010907
0.00104401
0.000999751
0.000957949
0.000918843
0.000882843
0.00084917
0.000818593
0.000793255
0.0007708
0.000749542
0.000728785
0.000709714
0.000688001
0.000669086
0.000659423
0.000636209
0.000629236
0.000654734
0.000690497
0.000796311
0.00119917
0.00153525
0.00187978
0.00157397
0.00116022
0.00140432
0.00183344
0.00197973
0.0020032
0.00200642
0.0020077
0.00200832
0.00200829
0.00200727
0.000828575
0.00149002
0.00174349
0.00177269
0.00175457
0.00164047
0.00155868
0.00147447
0.00139474
0.00132857
0.00127099
0.00121567
0.00116338
0.00111388
0.00106638
0.00102027
0.000981414
0.00094432
0.000909165
0.000876286
0.000845923
0.000817378
0.000791185
0.00076921
0.0007501
0.000731953
0.000714457
0.00069932
0.00068203
0.000666005
0.000657259
0.000636172
0.000635093
0.000662796
0.000703394
0.000819913
0.00124416
0.00155889
0.00189328
0.00154686
0.00116161
0.00142892
0.00184519
0.00198111
0.00200251
0.00200546
0.00200664
0.00200715
0.00200707
0.00200612
0.000338014
0.00103362
0.00133201
0.00143735
0.00146006
0.00140653
0.00135271
0.00129227
0.00123382
0.00118684
0.00114339
0.00110138
0.00106118
0.00102293
0.000987246
0.000955738
0.000923436
0.0008925
0.000863147
0.000835654
0.000810037
0.000785995
0.000763952
0.000745015
0.00072905
0.000713865
0.000699504
0.00068723
0.000673848
0.000662604
0.000654944
0.00063698
0.000643099
0.00067231
0.000718928
0.000851992
0.00129036
0.00158434
0.00190331
0.00151575
0.0011648
0.00145835
0.00185828
0.00198254
0.00200169
0.00200433
0.00200538
0.00200576
0.00200563
0.00200479
0.000341779
0.000753066
0.000996279
0.00111932
0.00118007
0.00118441
0.00115769
0.00112893
0.00109067
0.001061
0.00102893
0.000997391
0.00096682
0.000938142
0.000911868
0.000889608
0.00086687
0.000841566
0.000817579
0.000795143
0.000774202
0.000754694
0.000736698
0.000720915
0.000707958
0.000695636
0.000684313
0.000674766
0.000664491
0.000657695
0.000652624
0.000639004
0.000653286
0.000683534
0.000737852
0.000897952
0.00133323
0.00161145
0.00190522
0.00148458
0.00117073
0.0014922
0.00187214
0.0019839
0.0020007
0.00200303
0.00200391
0.00200414
0.00200399
0.00200327
0.000647055
0.000682142
0.000765552
0.000857468
0.000929656
0.000962902
0.000967761
0.00096362
0.000942768
0.000927799
0.000905744
0.000886641
0.000866803
0.000847299
0.000830402
0.000819301
0.000806064
0.000787932
0.000769931
0.00075276
0.000736862
0.000722169
0.000708875
0.000696841
0.000686728
0.000677312
0.000668947
0.000662138
0.000655092
0.000652035
0.000650001
0.00064281
0.000665504
0.000696595
0.000759427
0.000957019
0.00137014
0.00163905
0.00189844
0.00145119
0.00118325
0.00152967
0.00188612
0.00198506
0.00199954
0.00200155
0.00200223
0.00200232
0.00200216
0.0020016
0.00285337
0.00112663
0.000736086
0.000685098
0.00072543
0.000768793
0.000794391
0.000809067
0.000812729
0.000814571
0.000797925
0.000789154
0.000776116
0.000763382
0.000753883
0.00074873
0.000741545
0.000730674
0.000720058
0.000709472
0.000699255
0.000689482
0.000680502
0.000672159
0.000664965
0.000658521
0.000653321
0.000649339
0.000645837
0.000646518
0.000647486
0.000649075
0.000679697
0.00071252
0.000787008
0.0010281
0.00139913
0.00166653
0.00188396
0.00141579
0.00120392
0.00157096
0.00190002
0.00198594
0.00199813
0.00199981
0.00200029
0.00200023
0.0020001
0.00199972
0.00580838
0.0023447
0.00113322
0.000713464
0.000618076
0.000617071
0.000638237
0.000665487
0.000681305
0.000694411
0.0006979
0.00070264
0.000698465
0.000695794
0.000695455
0.000688806
0.000681567
0.000675727
0.00066998
0.000664243
0.000658608
0.000653378
0.000648531
0.000644042
0.000640436
0.000637697
0.000636199
0.000635845
0.00063636
0.000641341
0.000646647
0.000658958
0.000696447
0.000734434
0.000825979
0.00110728
0.00142718
0.00169642
0.00185579
0.00138298
0.00123393
0.00161832
0.0019143
0.0019865
0.00199636
0.00199768
0.00199793
0.00199776
0.00199765
0.00199746
0.0077715
0.00411516
0.00219563
0.00122388
0.000772404
0.000595273
0.000545505
0.000545994
0.000560517
0.000579409
0.000592207
0.000603183
0.000609338
0.000614283
0.000619223
0.000618201
0.000619072
0.000620346
0.000619189
0.000617489
0.000616018
0.000614923
0.00061376
0.000612961
0.000613217
0.000614742
0.000617612
0.000621801
0.000627623
0.000638058
0.000650596
0.00067428
0.000714665
0.000764953
0.000885326
0.0011835
0.00146465
0.00172305
0.00181018
0.00134759
0.00127833
0.00167355
0.00192904
0.00198659
0.00199404
0.00199495
0.00199503
0.0019948
0.00199471
0.00199461
0.00888289
0.00586778
0.00373326
0.00235424
0.00147401
0.000951391
0.000671934
0.000548039
0.000502953
0.000493022
0.000497623
0.000508126
0.000518529
0.000528115
0.000536959
0.000542741
0.000548441
0.0005551
0.000558551
0.000561674
0.000566204
0.000570826
0.000574432
0.000578686
0.00058405
0.000590889
0.000599231
0.000609167
0.000621536
0.000639076
0.000662978
0.000695279
0.000740279
0.000814214
0.000967871
0.00125226
0.00150876
0.00174781
0.00174035
0.00131316
0.00134408
0.00173604
0.00194345
0.00198592
0.00199094
0.00199143
0.00199142
0.0019912
0.00199106
0.00199091
0.00951942
0.00727821
0.00535732
0.0038477
0.00271443
0.00188279
0.00129283
0.000904907
0.000671419
0.000544047
0.000485813
0.000462777
0.000457858
0.000459766
0.000466228
0.00047353
0.000481499
0.000490894
0.000498934
0.000506508
0.000516144
0.000525124
0.000533916
0.000544393
0.000556204
0.000569571
0.000584787
0.000602167
0.000622409
0.000648735
0.000683234
0.000726872
0.000788846
0.00089014
0.001069
0.00130993
0.00154785
0.00176255
0.00164207
0.00129322
0.00143773
0.00180251
0.00195608
0.00198394
0.00198668
0.00198675
0.00198667
0.00198651
0.00198629
0.001986
0.00989872
0.00830538
0.00675671
0.00537327
0.00418585
0.00319563
0.00240194
0.00177579
0.00130516
0.00096608
0.000736728
0.000590216
0.000508918
0.000462686
0.000439975
0.00043171
0.000432064
0.000438579
0.000448518
0.000459992
0.000473523
0.000488143
0.000503686
0.000520918
0.000539626
0.000560262
0.00058339
0.000609423
0.000640129
0.000678072
0.000725483
0.000785155
0.000868052
0.000988956
0.00116598
0.00137416
0.00158864
0.00175153
0.00152394
0.00130747
0.00156456
0.00186627
0.00196491
0.00197984
0.0019806
0.00198022
0.00197995
0.00197981
0.00197963
0.00197927
0.0101313
0.00901145
0.00782766
0.00667061
0.00558759
0.00460253
0.00372497
0.00297029
0.00233844
0.00181699
0.001408
0.00109169
0.000856288
0.000689115
0.000576773
0.000508002
0.000467535
0.00044946
0.000447217
0.000453714
0.000466517
0.000483415
0.000503537
0.000526629
0.000552461
0.000581417
0.000613662
0.000649753
0.000691354
0.000740197
0.000799175
0.000872462
0.000969409
0.00109474
0.00125169
0.00142556
0.00161819
0.00168126
0.00142229
0.00139167
0.00170668
0.00191549
0.00196709
0.00197224
0.00197151
0.00197062
0.00196997
0.00196976
0.00196976
0.00196958
0.0102747
0.00947349
0.00857782
0.00764757
0.00672033
0.00582404
0.00497772
0.0041943
0.00348588
0.00286673
0.00233615
0.00188279
0.00150768
0.001217
0.000988668
0.0008181
0.000696505
0.00062066
0.000583821
0.000567746
0.000565771
0.000573825
0.000589713
0.00061132
0.000637607
0.000668242
0.000703153
0.000742713
0.000788459
0.000841657
0.000904898
0.000982563
0.00107967
0.00119267
0.00132106
0.0014761
0.0016173
0.00155451
0.00139172
0.00156011
0.00183131
0.00194149
0.00195992
0.00195899
0.00195725
0.00195587
0.0019548
0.00195445
0.00195463
0.00195459
0.0103609
0.00975093
0.00905133
0.00829615
0.00751148
0.00672046
0.00594264
0.00519626
0.00448913
0.00382956
0.00322482
0.00268674
0.00222637
0.0018358
0.00151994
0.00127274
0.00107607
0.000937063
0.000858774
0.000811922
0.000786445
0.00077659
0.000778266
0.000788447
0.00080542
0.000828447
0.000856912
0.000890821
0.000931024
0.000978671
0.00103594
0.00110589
0.00118856
0.00127772
0.0013824
0.00151067
0.00155498
0.001452
0.00149632
0.00174802
0.00190236
0.00193986
0.00194014
0.0019362
0.00193377
0.00193202
0.00193071
0.00193027
0.00193034
0.00193028
0.0104023
0.00988183
0.00928583
0.00863148
0.00794254
0.00723671
0.00652899
0.00583118
0.00515265
0.00450128
0.00388448
0.00331037
0.00279222
0.00233968
0.00196753
0.00166683
0.00142773
0.00124605
0.00113759
0.00107307
0.00103351
0.00101174
0.00100268
0.00100251
0.00100966
0.00102231
0.00104047
0.00106371
0.00109301
0.00112916
0.00117383
0.00122843
0.00128595
0.00135028
0.00144063
0.00149383
0.00147492
0.00150461
0.00170601
0.0018605
0.00190743
0.00190848
0.00190164
0.00189654
0.00189353
0.00189126
0.00188961
0.00188911
0.00188924
0.00188914
0.0103964
0.00986581
0.00927037
0.00863095
0.00797404
0.00731409
0.0066604
0.00601833
0.00539142
0.00478311
0.00419792
0.00364606
0.00313139
0.00266493
0.00225931
0.00192608
0.00167318
0.00147498
0.00135003
0.00128014
0.00123736
0.00121327
0.00120145
0.00119741
0.00119949
0.00120669
0.00121759
0.00123221
0.00125132
0.0012754
0.00130622
0.00133507
0.0013775
0.00142551
0.00145601
0.00148039
0.0015447
0.00170354
0.00181912
0.00185383
0.00185025
0.00183997
0.00183164
0.00182608
0.00182248
0.00181966
0.00181785
0.00181731
0.00181736
0.00181703
0.0103056
0.00959467
0.00885297
0.0081319
0.00745256
0.00681779
0.00622261
0.00565871
0.00512017
0.00460561
0.00410728
0.00362809
0.00317318
0.00275091
0.00237435
0.00205954
0.00181179
0.00161517
0.00148093
0.00141283
0.00137371
0.00135348
0.00134519
0.00134401
0.00134704
0.00135245
0.00136073
0.00137143
0.00138467
0.00139739
0.00141361
0.00143547
0.00145519
0.00148153
0.00152004
0.00159975
0.00169394
0.00174658
0.00175259
0.00173918
0.00172436
0.00171302
0.00170494
0.00169916
0.00169514
0.00169188
0.00169002
0.00168889
0.00168811
0.00168752
0.00989438
0.00859471
0.00753775
0.00668391
0.00601034
0.00545861
0.00499265
0.00457681
0.00419936
0.00383985
0.00349097
0.0031509
0.00282493
0.0025149
0.00222575
0.00197661
0.0017759
0.00162395
0.001504
0.00143672
0.00140539
0.00139219
0.00139049
0.00139512
0.00140294
0.00141188
0.00142074
0.00142866
0.00143604
0.00144721
0.00145716
0.00146813
0.00149005
0.00152316
0.00155457
0.00157096
0.00156529
0.00154521
0.00152328
0.00150523
0.00149176
0.00148175
0.00147431
0.00146878
0.0014649
0.00146167
0.00145946
0.00145772
0.00145658
0.00145585
0.00742046
0.0051931
0.0042217
0.0036467
0.00329783
0.00301858
0.00280925
0.00264624
0.00249496
0.00234858
0.00220511
0.00206888
0.00191365
0.00174967
0.00160081
0.00147718
0.00137383
0.00130273
0.00125535
0.0012244
0.00121563
0.00120822
0.00121152
0.00122145
0.00123503
0.0012475
0.00125957
0.00126718
0.00126027
0.0012485
0.00123178
0.00120991
0.00118487
0.00117188
0.00116559
0.00114181
0.00111749
0.00109493
0.00107774
0.00106612
0.00105732
0.00105025
0.0010448
0.00104065
0.00103774
0.00103534
0.00103324
0.00103178
0.00103112
0.00103073
0.000679138
0.000631286
0.000574662
0.00052921
0.000492084
0.000462175
0.000432031
0.000407063
0.000389264
0.000372836
0.000357503
0.00034314
0.000329675
0.000317346
0.000306583
0.000297783
0.000291173
0.000286666
0.000283883
0.000282492
0.000282146
0.000282433
0.000283063
0.000283785
0.000284372
0.000284669
0.000284558
0.000283943
0.00028284
0.00028136
0.000279638
0.000277843
0.00027614
0.000274631
0.00027333
0.000272238
0.000271373
0.000270724
0.000270227
0.00026982
0.000269495
0.000269236
0.000269035
0.000268884
0.000268773
0.000268686
0.000268616
0.000268561
0.000268526
0.000268495
)
;

boundaryField
{
    AXIS
    {
        type            empty;
    }
    OUTLET
    {
        type            calculated;
        value           nonuniform List<scalar> 
25
(
0.00201015
0.00200995
0.00200956
0.00200899
0.00200822
0.00200727
0.00200612
0.00200479
0.00200327
0.0020016
0.00199972
0.00199746
0.00199461
0.00199091
0.001986
0.00197927
0.00196957
0.00195459
0.00193028
0.00188914
0.00181703
0.00168752
0.00145585
0.00103073
0.000268495
)
;
    }
    COFLOW
    {
        type            calculated;
        value           nonuniform List<scalar> 
15
(
0.0106225
0.0106225
0.0106224
0.0106224
0.0106223
0.0106223
0.0106223
0.0106223
0.0106223
0.0106223
0.0106223
0.0106223
0.0106223
0.0106223
0.0106223
)
;
    }
    PILOT
    {
        type            calculated;
        value           nonuniform List<scalar> 5(0.00141094 0.00141097 0.00141109 0.00141114 0.00141117);
    }
    FUEL
    {
        type            calculated;
        value           nonuniform List<scalar> 5(0.0472856 0.0472843 0.0472901 0.047307 0.0473175);
    }
    WALL
    {
        type            mutkWallFunction;
        Cmu             0.09;
        kappa           0.41;
        E               9.8;
        value           nonuniform List<scalar> 
50
(
8.17818e-05
7.575e-05
6.85378e-05
6.26829e-05
5.78512e-05
5.39221e-05
4.99275e-05
4.65867e-05
4.41846e-05
4.19525e-05
3.98546e-05
3.78758e-05
3.6008e-05
3.42857e-05
3.27699e-05
3.15173e-05
3.05614e-05
2.98924e-05
2.94598e-05
2.92208e-05
2.91296e-05
2.9132e-05
2.91907e-05
2.92735e-05
2.93508e-05
2.94032e-05
2.94149e-05
2.93726e-05
2.92765e-05
2.91363e-05
2.89645e-05
2.87781e-05
2.85951e-05
2.84266e-05
2.82743e-05
2.81403e-05
2.803e-05
2.79456e-05
2.78789e-05
2.78228e-05
2.77775e-05
2.77414e-05
2.77133e-05
2.76922e-05
2.76767e-05
2.76647e-05
2.76548e-05
2.76472e-05
2.76422e-05
2.76379e-05
)
;
    }
    front
    {
        type            wedge;
    }
    back
    {
        type            wedge;
    }
}


// ************************************************************************* //
