/*--------------------------------*- C++ -*----------------------------------*\
| =========                 |                                                 |
| \\      /  F ield         | OpenFOAM: The Open Source CFD Toolbox           |
|  \\    /   O peration     | Version:  2.4.x                                 |
|   \\  /    A nd           | Web:      www.OpenFOAM.org                      |
|    \\/     M anipulation  |                                                 |
\*---------------------------------------------------------------------------*/
FoamFile
{
    version     2.0;
    format      ascii;
    class       surfaceScalarField;
    location    "0.06";
    object      phi;
}
// * * * * * * * * * * * * * * * * * * * * * * * * * * * * * * * * * * * * * //

dimensions      [1 0 -1 0 0 0 0];

internalField   nonuniform List<scalar> 
2425
(
1.06635e-06
-1.55488e-08
1.03592e-06
3.0449e-08
9.77215e-07
5.87172e-08
9.10565e-07
6.66597e-08
8.44578e-07
6.59938e-08
7.82417e-07
6.21679e-08
7.28329e-07
5.40931e-08
6.78539e-07
4.97971e-08
6.32477e-07
4.60695e-08
5.87831e-07
4.46518e-08
5.47418e-07
4.04199e-08
5.12555e-07
3.48686e-08
4.7988e-07
3.26793e-08
4.51243e-07
2.86405e-08
4.24799e-07
2.64472e-08
4.0142e-07
2.33823e-08
3.80208e-07
2.12162e-08
3.6149e-07
1.87222e-08
3.44124e-07
1.73732e-08
3.28054e-07
1.60779e-08
3.13504e-07
1.45584e-08
2.99834e-07
1.36775e-08
2.87653e-07
1.21889e-08
2.7582e-07
1.18425e-08
2.6445e-07
1.13765e-08
2.53839e-07
1.06214e-08
2.44112e-07
9.73581e-09
2.34968e-07
9.15348e-09
2.26471e-07
8.51556e-09
2.18188e-07
8.27589e-09
2.10217e-07
8.00947e-09
2.01966e-07
8.22097e-09
1.93398e-07
8.53498e-09
1.83886e-07
9.71115e-09
1.72369e-07
1.16707e-08
1.55978e-07
1.62953e-08
1.34606e-07
2.20065e-08
1.18958e-07
2.1154e-08
1.19218e-07
1.84491e-08
1.46838e-07
1.48211e-08
1.861e-07
1.7452e-08
2.00733e-07
1.00819e-08
2.00057e-07
6.40946e-09
1.97032e-07
4.26992e-09
1.9431e-07
3.00627e-09
1.92356e-07
2.03261e-09
1.90919e-07
1.46723e-09
1.89944e-07
9.91173e-10
1.89199e-07
7.52866e-10
4.25388e-10
3.21216e-06
-7.53844e-08
3.07424e-06
1.68419e-07
2.8768e-06
2.56193e-07
2.67215e-06
2.7134e-07
2.47432e-06
2.63841e-07
2.29577e-06
2.40741e-07
2.13657e-06
2.13306e-07
1.98927e-06
1.97123e-07
1.84803e-06
1.8733e-07
1.71978e-06
1.7292e-07
1.60459e-06
1.55622e-07
1.50203e-06
1.37446e-07
1.40932e-06
1.25403e-07
1.32596e-06
1.1202e-07
1.25067e-06
1.0174e-07
1.18227e-06
9.17983e-08
1.12158e-06
8.1914e-08
1.06672e-06
7.36053e-08
1.01667e-06
6.74398e-08
9.705e-07
6.22731e-08
9.27688e-07
5.73938e-08
8.88235e-07
5.3154e-08
8.52261e-07
4.81877e-08
8.18623e-07
4.55106e-08
7.85617e-07
4.44018e-08
7.54644e-07
4.16276e-08
7.25959e-07
3.84412e-08
6.9927e-07
3.58756e-08
6.741e-07
3.37346e-08
6.49889e-07
3.24743e-08
6.26293e-07
3.17215e-08
6.02057e-07
3.23737e-08
5.7679e-07
3.37588e-08
5.48985e-07
3.80987e-08
5.15318e-07
4.57816e-08
4.67493e-07
6.38206e-08
4.05054e-07
8.63354e-08
3.60213e-07
8.24628e-08
3.6194e-07
7.27157e-08
4.43939e-07
6.04901e-08
5.60966e-07
7.01388e-08
6.03401e-07
4.14448e-08
6.00924e-07
2.5994e-08
5.91703e-07
1.72096e-08
5.835e-07
1.2058e-08
5.77601e-07
8.1644e-09
5.73283e-07
5.87689e-09
5.7034e-07
3.98119e-09
5.68101e-07
3.01766e-09
1.71039e-09
5.25945e-06
-8.03084e-08
4.91774e-06
5.102e-07
4.54332e-06
6.30665e-07
4.20026e-06
6.14455e-07
3.89416e-06
5.6998e-07
3.61969e-06
5.15243e-07
3.35763e-06
4.75391e-07
3.11537e-06
4.3941e-07
2.89971e-06
4.03025e-07
2.7068e-06
3.65861e-07
2.53357e-06
3.28883e-07
2.37838e-06
2.92661e-07
2.23888e-06
2.64932e-07
2.11253e-06
2.38385e-07
1.99782e-06
2.16469e-07
1.89377e-06
1.95866e-07
1.8006e-06
1.75112e-07
1.71633e-06
1.57894e-07
1.63887e-06
1.44937e-07
1.5671e-06
1.34084e-07
1.50063e-06
1.23902e-07
1.43914e-06
1.14678e-07
1.38292e-06
1.04457e-07
1.3318e-06
9.66719e-08
1.28169e-06
9.45561e-08
1.23255e-06
9.08187e-08
1.18691e-06
8.41196e-08
1.14435e-06
7.84904e-08
1.10421e-06
7.39558e-08
1.06543e-06
7.12458e-08
1.02762e-06
6.9719e-08
9.88742e-07
7.11239e-08
9.48064e-07
7.44195e-08
9.03266e-07
8.40269e-08
8.49028e-07
1.00807e-07
7.71805e-07
1.40895e-07
6.72583e-07
1.89883e-07
6.02668e-07
1.826e-07
6.07627e-07
1.60587e-07
7.44954e-07
1.37697e-07
9.38425e-07
1.57515e-07
1.00716e-06
9.39883e-08
1.00236e-06
5.88924e-08
9.86929e-07
3.87524e-08
9.73235e-07
2.71515e-08
9.63404e-07
1.83815e-08
9.56217e-07
1.32151e-08
9.51315e-07
8.96325e-09
9.47601e-07
6.77327e-09
3.82662e-09
6.93634e-06
3.4232e-07
6.23823e-06
1.2084e-06
5.70292e-06
1.16605e-06
5.27811e-06
1.03933e-06
4.88484e-06
9.633e-07
4.52426e-06
8.75858e-07
4.20875e-06
7.90935e-07
3.93077e-06
7.17435e-07
3.68199e-06
6.51851e-07
3.45872e-06
5.8917e-07
3.2581e-06
5.29537e-07
3.07658e-06
4.74229e-07
2.91086e-06
4.30683e-07
2.75948e-06
3.89803e-07
2.62145e-06
3.54515e-07
2.49579e-06
3.21554e-07
2.3821e-06
2.88834e-07
2.27786e-06
2.62176e-07
2.18124e-06
2.41596e-07
2.09147e-06
2.23908e-07
2.00805e-06
2.07378e-07
1.93062e-06
1.92158e-07
1.85979e-06
1.75339e-07
1.795e-06
1.6153e-07
1.73416e-06
1.55452e-07
1.67385e-06
1.51199e-07
1.61422e-06
1.43806e-07
1.55862e-06
1.34182e-07
1.50592e-06
1.26763e-07
1.45497e-06
1.22209e-07
1.40515e-06
1.19802e-07
1.35371e-06
1.22412e-07
1.29966e-06
1.28571e-07
1.23985e-06
1.45316e-07
1.16684e-06
1.75154e-07
1.06277e-06
2.45493e-07
9.32075e-07
3.29091e-07
8.42966e-07
3.17209e-07
8.54561e-07
2.82444e-07
1.05034e-06
2.46778e-07
1.31866e-06
2.77435e-07
1.41136e-06
1.66955e-07
1.40385e-06
1.04765e-07
1.38243e-06
6.8542e-08
1.36336e-06
4.81462e-08
1.34968e-06
3.25936e-08
1.3397e-06
2.3413e-08
1.33288e-06
1.58925e-08
1.32773e-06
1.19796e-08
6.75036e-09
7.1044e-06
2.70154e-06
6.2992e-06
2.01368e-06
5.88761e-06
1.5777e-06
5.49753e-06
1.42949e-06
5.16902e-06
1.29188e-06
4.87816e-06
1.16677e-06
4.61101e-06
1.05813e-06
4.36521e-06
9.63285e-07
4.13693e-06
8.80187e-07
3.92754e-06
7.98608e-07
3.73548e-06
7.21637e-07
3.55706e-06
6.52705e-07
3.39198e-06
5.95816e-07
3.23841e-06
5.4341e-07
3.09472e-06
4.98229e-07
2.96255e-06
4.53755e-07
2.84172e-06
4.09709e-07
2.72902e-06
3.74931e-07
2.62392e-06
3.46752e-07
2.52554e-06
3.22349e-07
2.43363e-06
2.99357e-07
2.34776e-06
2.78087e-07
2.26865e-06
2.54523e-07
2.19583e-06
2.34419e-07
2.1278e-06
2.23545e-07
2.06306e-06
2.16012e-07
1.99732e-06
2.09632e-07
1.93212e-06
1.99513e-07
1.87033e-06
1.88696e-07
1.8103e-06
1.82303e-07
1.75111e-06
1.79327e-07
1.68978e-06
1.83604e-07
1.62495e-06
1.93714e-07
1.55249e-06
2.19644e-07
1.46307e-06
2.67292e-07
1.33577e-06
3.74683e-07
1.18045e-06
4.96523e-07
1.07881e-06
4.80628e-07
1.1011e-06
4.25045e-07
1.36078e-06
3.90218e-07
1.70224e-06
4.2563e-07
1.81593e-06
2.58865e-07
1.80523e-06
1.6308e-07
1.77816e-06
1.06053e-07
1.75391e-06
7.47987e-08
1.73653e-06
5.06538e-08
1.72385e-06
3.63611e-08
1.71519e-06
2.46984e-08
1.70868e-06
1.85645e-08
1.04277e-08
3.30827e-06
-3.11907e-09
4.34744e-06
9.74565e-07
4.7e-06
1.2252e-06
4.76499e-06
1.3646e-06
4.72713e-06
1.32981e-06
4.63229e-06
1.26168e-06
4.50546e-06
1.18501e-06
4.36594e-06
1.10287e-06
4.22502e-06
1.02117e-06
4.08728e-06
9.36409e-07
3.95171e-06
8.57254e-07
3.81584e-06
7.88654e-07
3.67811e-06
7.33615e-07
3.53982e-06
6.8174e-07
3.40761e-06
6.30466e-07
3.28436e-06
5.7705e-07
3.16995e-06
5.2418e-07
3.06119e-06
4.83748e-07
2.95821e-06
4.49796e-07
2.8609e-06
4.19725e-07
2.76917e-06
3.91171e-07
2.68259e-06
3.64743e-07
2.60172e-06
3.35465e-07
2.52664e-06
3.09581e-07
2.45602e-06
2.94245e-07
2.38944e-06
2.82673e-07
2.32449e-06
2.74633e-07
2.25779e-06
2.66403e-07
2.19045e-06
2.56219e-07
2.12473e-06
2.4815e-07
2.05971e-06
2.44767e-07
1.99156e-06
2.51647e-07
1.91874e-06
2.67129e-07
1.8364e-06
3.04324e-07
1.73342e-06
3.74972e-07
1.58764e-06
5.26226e-07
1.41528e-06
6.87829e-07
1.30805e-06
6.69547e-07
1.34785e-06
5.93656e-07
1.67741e-06
5.67938e-07
2.08892e-06
5.97008e-07
2.22054e-06
3.67189e-07
2.20655e-06
2.32706e-07
2.17406e-06
1.50805e-07
2.14494e-06
1.0678e-07
2.12403e-06
7.23641e-08
2.10881e-06
5.19118e-08
2.0984e-06
3.52798e-08
2.09061e-06
2.64465e-08
1.48175e-08
1.51709e-06
-8.06822e-07
2.61719e-06
-1.25472e-07
3.33856e-06
5.03908e-07
3.76267e-06
9.40591e-07
3.98893e-06
1.10363e-06
4.09188e-06
1.1588e-06
4.12237e-06
1.15458e-06
4.10563e-06
1.11968e-06
4.06166e-06
1.0652e-06
4.00179e-06
9.96345e-07
3.92942e-06
9.2968e-07
3.84736e-06
8.70797e-07
3.76032e-06
8.20733e-07
3.66902e-06
7.73099e-07
3.57076e-06
7.28753e-07
3.46913e-06
6.7873e-07
3.37174e-06
6.21636e-07
3.27727e-06
5.78283e-07
3.18601e-06
5.41121e-07
3.09838e-06
5.07431e-07
3.01438e-06
4.7525e-07
2.93366e-06
4.45555e-07
2.85685e-06
4.12365e-07
2.78483e-06
3.81691e-07
2.71679e-06
3.62369e-07
2.65194e-06
3.4761e-07
2.58959e-06
3.3706e-07
2.52765e-06
3.28481e-07
2.46247e-06
3.21651e-07
2.39498e-06
3.15883e-07
2.32723e-06
3.13008e-07
2.2554e-06
3.23491e-07
2.17793e-06
3.45605e-07
2.08884e-06
3.9629e-07
1.9753e-06
4.94618e-07
1.81751e-06
6.94592e-07
1.63683e-06
8.96089e-07
1.53011e-06
8.80723e-07
1.59499e-06
7.84879e-07
2.00075e-06
7.72249e-07
2.47871e-06
7.84781e-07
2.62542e-06
4.88379e-07
2.60791e-06
3.12492e-07
2.57016e-06
2.02393e-07
2.53648e-06
1.43703e-07
2.51228e-06
9.74917e-08
2.49469e-06
6.98854e-08
2.48266e-06
4.75149e-08
2.47368e-06
3.55395e-08
1.98811e-08
9.367e-07
-9.20333e-07
1.58956e-06
-7.78256e-07
2.29687e-06
-2.03327e-07
2.84716e-06
3.90386e-07
3.22238e-06
7.28497e-07
3.46175e-06
9.19507e-07
3.61349e-06
1.0029e-06
3.70224e-06
1.031e-06
3.74975e-06
1.01775e-06
3.76812e-06
9.78041e-07
3.76214e-06
9.35726e-07
3.73799e-06
8.95034e-07
3.70137e-06
8.57427e-07
3.65568e-06
8.18848e-07
3.60368e-06
7.80786e-07
3.53961e-06
7.42838e-07
3.46671e-06
6.94584e-07
3.39357e-06
6.51477e-07
3.32031e-06
6.14436e-07
3.24764e-06
5.80174e-07
3.17606e-06
5.46919e-07
3.10608e-06
5.15632e-07
3.03794e-06
4.80616e-07
2.97315e-06
4.4658e-07
2.91193e-06
4.23696e-07
2.85299e-06
4.06658e-07
2.79582e-06
3.94345e-07
2.73986e-06
3.84618e-07
2.6821e-06
3.7953e-07
2.61925e-06
3.79153e-07
2.55228e-06
3.80586e-07
2.48e-06
3.96003e-07
2.401e-06
4.26145e-07
2.30824e-06
4.92479e-07
2.1876e-06
6.22992e-07
2.02257e-06
8.76005e-07
1.84219e-06
1.1112e-06
1.74488e-06
1.115e-06
1.84174e-06
9.83871e-07
2.33046e-06
1.0101e-06
2.87075e-06
9.8051e-07
3.03054e-06
6.17648e-07
3.00913e-06
4.0141e-07
2.96641e-06
2.60244e-07
2.92859e-06
1.85107e-07
2.90136e-06
1.25762e-07
2.88161e-06
9.00735e-08
2.86809e-06
6.12666e-08
2.85801e-06
4.57452e-08
2.55687e-08
7.96115e-07
-7.83478e-07
1.04992e-06
-1.032e-06
1.60087e-06
-7.54214e-07
2.14031e-06
-1.4899e-07
2.56223e-06
3.06652e-07
2.87612e-06
6.05686e-07
3.10289e-06
7.76192e-07
3.26597e-06
8.6798e-07
3.3831e-06
9.00682e-07
3.46453e-06
8.96678e-07
3.51549e-06
8.84824e-07
3.5434e-06
8.67198e-07
3.55377e-06
8.47128e-07
3.54994e-06
8.22724e-07
3.53545e-06
7.95292e-07
3.50891e-06
7.6944e-07
3.46917e-06
7.34354e-07
3.42112e-06
6.9957e-07
3.36976e-06
6.65838e-07
3.31637e-06
6.33623e-07
3.26203e-06
6.01348e-07
3.20737e-06
5.70403e-07
3.15218e-06
5.35945e-07
3.09868e-06
5.00208e-07
3.04778e-06
4.74733e-07
2.99801e-06
4.5658e-07
2.94915e-06
4.43386e-07
2.90053e-06
4.33495e-07
2.85074e-06
4.29556e-07
2.79681e-06
4.33498e-07
2.73564e-06
4.42503e-07
2.66598e-06
4.66306e-07
2.58868e-06
5.05674e-07
2.49509e-06
5.9015e-07
2.37058e-06
7.56702e-07
2.20439e-06
1.06439e-06
2.0343e-06
1.32998e-06
1.95222e-06
1.36374e-06
2.08904e-06
1.19498e-06
2.66633e-06
1.27808e-06
3.26558e-06
1.17326e-06
3.43548e-06
7.51367e-07
3.41019e-06
4.98085e-07
3.3628e-06
3.23792e-07
3.32131e-06
2.30476e-07
3.29135e-06
1.56866e-07
3.26967e-06
1.12247e-07
3.25481e-06
7.63863e-08
3.24374e-06
5.69548e-08
3.18229e-08
9.55342e-07
-6.96061e-07
9.7639e-07
-1.05301e-06
1.27446e-06
-1.05232e-06
1.6799e-06
-5.54411e-07
2.06821e-06
-8.16134e-08
2.39216e-06
2.81787e-07
2.65257e-06
5.15834e-07
2.85392e-06
6.66687e-07
3.00529e-06
7.49348e-07
3.11741e-06
7.84604e-07
3.20137e-06
8.00897e-07
3.26296e-06
8.05652e-07
3.30727e-06
8.0285e-07
3.33837e-06
7.91639e-07
3.36352e-06
7.70184e-07
3.37986e-06
7.53199e-07
3.37959e-06
7.34762e-07
3.36411e-06
7.15178e-07
3.34044e-06
6.89611e-07
3.31156e-06
6.62602e-07
3.27936e-06
6.33679e-07
3.2452e-06
6.04701e-07
3.20869e-06
5.72632e-07
3.17058e-06
5.38488e-07
3.1326e-06
5.12919e-07
3.09437e-06
4.95056e-07
3.05595e-06
4.82102e-07
3.01682e-06
4.7301e-07
2.97581e-06
4.71e-07
2.93162e-06
4.78351e-07
2.87945e-06
4.95349e-07
2.81614e-06
5.30878e-07
2.74315e-06
5.8166e-07
2.65049e-06
6.87968e-07
2.52503e-06
8.92319e-07
2.3647e-06
1.24871e-06
2.21378e-06
1.54532e-06
2.15275e-06
1.62835e-06
2.33805e-06
1.4111e-06
3.01004e-06
1.56786e-06
3.67045e-06
1.49191e-06
3.84059e-06
8.94064e-07
3.81115e-06
6.01558e-07
3.75938e-06
3.92522e-07
3.71472e-06
2.79256e-07
3.68236e-06
1.90477e-07
3.65897e-06
1.36166e-07
3.64294e-06
9.27176e-08
3.631e-06
6.9053e-08
3.85807e-08
1.81846e-06
-1.49279e-07
1.53197e-06
-7.66442e-07
1.41727e-06
-9.37738e-07
1.56874e-06
-7.05947e-07
1.85296e-06
-3.65846e-07
2.14913e-06
-1.43612e-08
2.41567e-06
2.49302e-07
2.64509e-06
4.37292e-07
2.8352e-06
5.59249e-07
2.98005e-06
6.39751e-07
3.08959e-06
6.91318e-07
3.17626e-06
7.18934e-07
3.24496e-06
7.34081e-07
3.29962e-06
7.36879e-07
3.34992e-06
7.19872e-07
3.39419e-06
7.08929e-07
3.42404e-06
7.04944e-07
3.43924e-06
6.99974e-07
3.44477e-06
6.84086e-07
3.44274e-06
6.64686e-07
3.43474e-06
6.41794e-07
3.42217e-06
6.17464e-07
3.40487e-06
5.9019e-07
3.38302e-06
5.6065e-07
3.35852e-06
5.3777e-07
3.33257e-06
5.21429e-07
3.30522e-06
5.10014e-07
3.27561e-06
5.03244e-07
3.24317e-06
5.04202e-07
3.20662e-06
5.15941e-07
3.1623e-06
5.4076e-07
3.10569e-06
5.89636e-07
3.03532e-06
6.56227e-07
2.9404e-06
7.90128e-07
2.81067e-06
1.03613e-06
2.65333e-06
1.44619e-06
2.5207e-06
1.76116e-06
2.48717e-06
1.91876e-06
2.74745e-06
1.6561e-06
3.56964e-06
1.91458e-06
4.32302e-06
1.81563e-06
4.50012e-06
1.0522e-06
4.46505e-06
7.16671e-07
4.40623e-06
4.69981e-07
4.3562e-06
3.33871e-07
4.31975e-06
2.2835e-07
4.29346e-06
1.63073e-07
4.27539e-06
1.11124e-07
4.26195e-06
8.26744e-08
4.61996e-08
2.75331e-06
3.35181e-08
2.41669e-06
-4.29659e-07
2.05723e-06
-5.78414e-07
1.9063e-06
-5.55205e-07
1.97189e-06
-4.31634e-07
2.16331e-06
-2.05886e-07
2.39664e-06
1.58881e-08
2.62856e-06
2.05291e-07
2.83628e-06
3.51423e-07
3.01847e-06
4.57455e-07
3.17456e-06
5.35077e-07
3.30541e-06
5.87896e-07
3.41524e-06
6.24004e-07
3.50704e-06
6.44792e-07
3.57749e-06
6.4915e-07
3.62886e-06
6.57089e-07
3.6717e-06
6.61687e-07
3.70926e-06
6.62182e-07
3.73922e-06
6.5402e-07
3.76158e-06
6.42328e-07
3.77701e-06
6.26522e-07
3.7866e-06
6.08169e-07
3.79002e-06
5.87219e-07
3.78725e-06
5.64011e-07
3.77989e-06
5.45826e-07
3.76938e-06
5.32822e-07
3.75596e-06
5.24501e-07
3.73872e-06
5.21672e-07
3.7169e-06
5.27493e-07
3.68941e-06
5.45253e-07
3.65332e-06
5.78812e-07
3.60315e-06
6.4349e-07
3.53413e-06
7.31324e-07
3.43347e-06
9.01662e-07
3.2989e-06
1.19425e-06
3.14307e-06
1.65839e-06
3.03196e-06
1.99669e-06
3.04113e-06
2.23417e-06
3.43264e-06
1.95024e-06
4.49531e-06
2.3151e-06
5.39205e-06
2.15315e-06
5.58387e-06
1.23494e-06
5.54067e-06
8.50374e-07
5.47093e-06
5.61107e-07
5.41226e-06
3.97906e-07
5.3692e-06
2.7311e-07
5.33817e-06
1.94852e-07
5.3168e-06
1.32917e-07
5.30092e-06
9.87769e-08
5.52156e-08
3.58292e-06
1.00077e-07
3.31563e-06
-1.62099e-07
2.99541e-06
-2.5827e-07
2.71262e-06
-2.72736e-07
2.53591e-06
-2.55365e-07
2.50289e-06
-1.7329e-07
2.58271e-06
-6.43837e-08
2.73094e-06
5.66208e-08
2.9082e-06
1.73696e-07
3.08831e-06
2.7689e-07
3.25514e-06
3.67667e-07
3.40449e-06
4.37894e-07
3.5385e-06
4.89276e-07
3.65638e-06
5.26141e-07
3.75639e-06
5.48308e-07
3.8427e-06
5.69899e-07
3.91717e-06
5.86412e-07
3.98254e-06
5.96184e-07
4.03846e-06
5.97756e-07
4.08569e-06
5.95089e-07
4.12506e-06
5.87491e-07
4.15748e-06
5.76452e-07
4.18293e-06
5.62819e-07
4.20201e-06
5.46277e-07
4.21668e-06
5.32556e-07
4.22762e-06
5.23544e-07
4.23405e-06
5.20021e-07
4.23544e-06
5.22566e-07
4.23034e-06
5.35213e-07
4.21649e-06
5.62213e-07
4.19223e-06
6.06734e-07
4.15196e-06
6.90263e-07
4.08615e-06
8.06473e-07
3.98309e-06
1.02208e-06
3.85159e-06
1.36268e-06
3.71089e-06
1.87894e-06
3.63398e-06
2.26287e-06
3.71727e-06
2.58097e-06
4.31907e-06
2.29814e-06
5.69312e-06
2.8096e-06
6.73473e-06
2.48783e-06
6.93411e-06
1.44366e-06
6.88245e-06
1.00221e-06
6.80102e-06
6.6665e-07
6.73336e-06
4.71757e-07
6.68321e-06
3.25271e-07
6.64706e-06
2.31921e-07
6.62208e-06
1.58414e-07
6.60357e-06
1.17574e-07
6.57417e-08
4.53373e-06
1.08122e-07
4.36396e-06
8.00243e-09
4.12654e-06
-2.09514e-08
3.87066e-06
-1.73395e-08
3.61454e-06
-1.35471e-10
3.40525e-06
3.48797e-08
3.2702e-06
6.92414e-08
3.22204e-06
1.03136e-07
3.24769e-06
1.46289e-07
3.32608e-06
1.96658e-07
3.43789e-06
2.53928e-07
3.56417e-06
3.09517e-07
3.69428e-06
3.57062e-07
3.81884e-06
3.9934e-07
3.93201e-06
4.32825e-07
4.03758e-06
4.62113e-07
4.13596e-06
4.8614e-07
4.22754e-06
5.03259e-07
4.31212e-06
5.12531e-07
4.39005e-06
5.17251e-07
4.46113e-06
5.1727e-07
4.52521e-06
5.13926e-07
4.58206e-06
5.08215e-07
4.63178e-06
4.99327e-07
4.67592e-06
4.91345e-07
4.71518e-06
4.87684e-07
4.74824e-06
4.90809e-07
4.77425e-06
5.00742e-07
4.79178e-06
5.22405e-07
4.79759e-06
5.61843e-07
4.78673e-06
6.24562e-07
4.7562e-06
7.31088e-07
4.69567e-06
8.82644e-07
4.59459e-06
1.15021e-06
4.47528e-06
1.54313e-06
4.37157e-06
2.10433e-06
4.35128e-06
2.56214e-06
4.5588e-06
2.96523e-06
5.48847e-06
2.73561e-06
7.2418e-06
3.31521e-06
8.41677e-06
2.78727e-06
8.61481e-06
1.67475e-06
8.55555e-06
1.16901e-06
8.46277e-06
7.85895e-07
8.38648e-06
5.55048e-07
8.32923e-06
3.84895e-07
8.28787e-06
2.74396e-07
8.25918e-06
1.87741e-07
8.23797e-06
1.39132e-07
7.78032e-08
5.66789e-06
9.87433e-08
5.56624e-06
1.10038e-07
5.40437e-06
1.40829e-07
5.21319e-06
1.73085e-07
5.00328e-06
2.08293e-07
4.78674e-06
2.48893e-07
4.57224e-06
2.80158e-07
4.37327e-06
2.97386e-07
4.20988e-06
3.04063e-07
4.09763e-06
3.02438e-07
4.04475e-06
3.0002e-07
4.05078e-06
2.96582e-07
4.0974e-06
3.03406e-07
4.16862e-06
3.21386e-07
4.25459e-06
3.40417e-07
4.34923e-06
3.61611e-07
4.4486e-06
3.82151e-07
4.54918e-06
3.99636e-07
4.64843e-06
4.12101e-07
4.74782e-06
4.18411e-07
4.84573e-06
4.21509e-07
4.93984e-06
4.23299e-07
5.02914e-06
4.23441e-07
5.11326e-06
4.20782e-07
5.19161e-06
4.18564e-07
5.2633e-06
4.22238e-07
5.32695e-06
4.33932e-07
5.3794e-06
4.55527e-07
5.41839e-06
4.90955e-07
5.44376e-06
5.45149e-07
5.45131e-06
6.2864e-07
5.43444e-06
7.64037e-07
5.38118e-06
9.6076e-07
5.29158e-06
1.2836e-06
5.18691e-06
1.7416e-06
5.12804e-06
2.35311e-06
5.20407e-06
2.89763e-06
5.64462e-06
3.3518e-06
7.07755e-06
3.26101e-06
9.26516e-06
3.92099e-06
1.05109e-05
3.0382e-06
1.07022e-05
1.91404e-06
1.06395e-05
1.34284e-06
1.05385e-05
9.14915e-07
1.04552e-05
6.4612e-07
1.03917e-05
4.51177e-07
1.03456e-05
3.21838e-07
1.03134e-05
2.20664e-07
1.02897e-05
1.63261e-07
9.12741e-08
7.06579e-06
8.98987e-08
7.00921e-06
1.67088e-07
6.91057e-06
2.3932e-07
6.77939e-06
3.03177e-07
6.62224e-06
3.62932e-07
6.45323e-06
4.13845e-07
6.27074e-06
4.56154e-07
6.06962e-06
4.88846e-07
5.85637e-06
5.04646e-07
5.63764e-06
5.05092e-07
5.42841e-06
4.9052e-07
5.24492e-06
4.58289e-07
5.10185e-06
4.23484e-07
5.0089e-06
3.91317e-07
4.9673e-06
3.60838e-07
4.97052e-06
3.40209e-07
5.01082e-06
3.28211e-07
5.08271e-06
3.19332e-07
5.17667e-06
3.14776e-07
5.28412e-06
3.11579e-07
5.39916e-06
3.10243e-07
5.51704e-06
3.11358e-07
5.63412e-06
3.13871e-07
5.74638e-06
3.17035e-07
5.85073e-06
3.23484e-07
5.94658e-06
3.36376e-07
6.0329e-06
3.57669e-07
6.10811e-06
3.90709e-07
6.16875e-06
4.40523e-07
6.21165e-06
5.14035e-07
6.23242e-06
6.2423e-07
6.22721e-06
7.95788e-07
6.18137e-06
1.04724e-06
6.10148e-06
1.43429e-06
6.01506e-06
1.9695e-06
6.02875e-06
2.64757e-06
6.26599e-06
3.29247e-06
7.13864e-06
3.73858e-06
9.2987e-06
3.94594e-06
1.18622e-05
4.33475e-06
1.31136e-05
3.19828e-06
1.32949e-05
2.14058e-06
1.32355e-05
1.51065e-06
1.31308e-05
1.04795e-06
1.30436e-05
7.4159e-07
1.29759e-05
5.21968e-07
1.29265e-05
3.72915e-07
1.28917e-05
2.56373e-07
1.28661e-05
1.89372e-07
1.05801e-07
8.81488e-06
8.40683e-08
8.78804e-06
1.94513e-07
8.73339e-06
2.93783e-07
8.65306e-06
3.82115e-07
8.54963e-06
4.63116e-07
8.42396e-06
5.33497e-07
8.27929e-06
5.90801e-07
8.12101e-06
6.33081e-07
7.9431e-06
6.61811e-07
7.74381e-06
6.77533e-07
7.52519e-06
6.74661e-07
7.28273e-06
6.55523e-07
7.02677e-06
6.25363e-07
6.77816e-06
5.79223e-07
6.55347e-06
5.22394e-07
6.3737e-06
4.60302e-07
6.25512e-06
3.97394e-07
6.2064e-06
3.35156e-07
6.21552e-06
2.85439e-07
6.26668e-06
2.49725e-07
6.34758e-06
2.25571e-07
6.44646e-06
2.13175e-07
6.55579e-06
2.07963e-07
6.66825e-06
2.09585e-07
6.77891e-06
2.18625e-07
6.88428e-06
2.37109e-07
6.98084e-06
2.6723e-07
7.06544e-06
3.12362e-07
7.13327e-06
3.80032e-07
7.18023e-06
4.78524e-07
7.20113e-06
6.23615e-07
7.19356e-06
8.43212e-07
7.14486e-06
1.16369e-06
7.05979e-06
1.63499e-06
7.00512e-06
2.24711e-06
7.16098e-06
2.99833e-06
7.7092e-06
3.74288e-06
9.31959e-06
4.20548e-06
1.24294e-05
4.71674e-06
1.52776e-05
4.81902e-06
1.63743e-05
3.32887e-06
1.65221e-05
2.35449e-06
1.64682e-05
1.66399e-06
1.63672e-05
1.1762e-06
1.62815e-05
8.35825e-07
1.62137e-05
5.93243e-07
1.61635e-05
4.25035e-07
1.61278e-05
2.9318e-07
1.61016e-05
2.16306e-07
1.20723e-07
1.10108e-05
7.86037e-08
1.10036e-05
2.02435e-07
1.09806e-05
3.16691e-07
1.09401e-05
4.21101e-07
1.0882e-05
5.17504e-07
1.08043e-05
6.04284e-07
1.07041e-05
6.78962e-07
1.05802e-05
7.37822e-07
1.04384e-05
7.77618e-07
1.02829e-05
7.98796e-07
1.01033e-05
8.04885e-07
9.88939e-06
8.01316e-07
9.65056e-06
7.7959e-07
9.38672e-06
7.37241e-07
9.10439e-06
6.83665e-07
8.83034e-06
6.05425e-07
8.58311e-06
5.15098e-07
8.38756e-06
4.15135e-07
8.25265e-06
3.24706e-07
8.17345e-06
2.517e-07
8.13974e-06
1.97182e-07
8.14078e-06
1.60851e-07
8.16745e-06
1.39445e-07
8.20905e-06
1.32926e-07
8.25859e-06
1.38948e-07
8.31039e-06
1.59573e-07
8.35937e-06
1.9666e-07
8.40069e-06
2.54759e-07
8.42855e-06
3.41889e-07
8.43719e-06
4.72415e-07
8.42355e-06
6.60694e-07
8.38906e-06
9.39927e-07
8.32095e-06
1.34431e-06
8.24884e-06
1.90194e-06
8.30748e-06
2.59309e-06
8.75305e-06
3.44973e-06
9.95676e-06
4.22732e-06
1.27814e-05
4.87691e-06
1.67479e-05
5.26626e-06
1.94727e-05
4.87656e-06
2.0373e-05
3.40253e-06
2.05233e-05
2.50106e-06
2.04896e-05
1.78218e-06
2.04056e-05
1.28498e-06
2.03304e-05
9.19562e-07
2.02688e-05
6.58702e-07
2.02222e-05
4.73941e-07
2.01886e-05
3.28214e-07
2.01634e-05
2.42215e-07
1.35114e-07
1.37664e-05
7.16835e-08
1.37736e-05
1.96327e-07
1.37748e-05
3.15756e-07
1.3766e-05
4.28584e-07
1.37452e-05
5.34689e-07
1.37103e-05
6.32023e-07
1.3661e-05
7.18236e-07
1.35914e-05
7.90277e-07
1.34964e-05
8.45062e-07
1.3372e-05
8.80592e-07
1.32185e-05
8.95153e-07
1.30475e-05
8.9231e-07
1.28518e-05
8.64833e-07
1.2634e-05
8.2325e-07
1.2391e-05
7.59552e-07
1.21248e-05
6.76768e-07
1.18398e-05
5.76883e-07
1.15573e-05
4.65625e-07
1.13008e-05
3.58205e-07
1.10798e-05
2.67745e-07
1.08962e-05
1.97531e-07
1.0747e-05
1.46134e-07
1.06293e-05
1.14003e-07
1.05362e-05
1.01375e-07
1.04625e-05
1.04517e-07
1.03993e-05
1.28019e-07
1.03428e-05
1.75159e-07
1.0286e-05
2.51441e-07
1.02222e-05
3.66064e-07
1.0148e-05
5.38979e-07
1.00664e-05
7.82617e-07
9.98445e-06
1.14027e-06
9.89889e-06
1.62365e-06
9.93062e-06
2.27486e-06
1.03049e-05
3.08227e-06
1.13993e-05
3.9583e-06
1.39451e-05
4.70627e-06
1.81567e-05
5.52828e-06
2.23903e-05
5.53957e-06
2.46266e-05
4.64781e-06
2.53304e-05
3.40499e-06
2.54981e-05
2.55438e-06
2.54965e-05
1.85013e-06
2.54454e-05
1.35729e-06
2.53924e-05
9.80952e-07
2.53458e-05
7.09569e-07
2.5309e-05
5.13443e-07
2.52818e-05
3.57186e-07
2.52609e-05
2.64079e-07
1.47285e-07
1.72235e-05
6.26745e-08
1.72424e-05
1.79156e-07
1.72634e-05
2.95608e-07
1.72828e-05
4.09638e-07
1.72971e-05
5.19156e-07
1.73034e-05
6.2169e-07
1.72989e-05
7.14321e-07
1.72799e-05
7.94058e-07
1.72413e-05
8.58155e-07
1.71768e-05
9.04205e-07
1.70813e-05
9.27724e-07
1.69538e-05
9.25915e-07
1.68068e-05
8.96444e-07
1.6647e-05
8.41609e-07
1.64537e-05
7.59183e-07
1.62091e-05
6.73758e-07
1.59165e-05
5.69807e-07
1.55843e-05
4.63164e-07
1.52379e-05
3.60052e-07
1.48949e-05
2.75129e-07
1.45664e-05
2.08987e-07
1.42587e-05
1.61763e-07
1.39765e-05
1.33149e-07
1.37208e-05
1.25878e-07
1.34881e-05
1.34858e-07
1.32747e-05
1.73428e-07
1.30779e-05
2.36856e-07
1.28932e-05
3.42977e-07
1.27194e-05
4.96831e-07
1.25585e-05
7.29153e-07
1.24321e-05
1.03919e-06
1.23499e-05
1.49081e-06
1.2382e-05
2.04606e-06
1.2818e-05
2.77366e-06
1.39648e-05
3.66667e-06
1.64727e-05
4.4434e-06
2.08272e-05
5.08301e-06
2.56056e-05
5.43104e-06
2.91557e-05
5.0542e-06
3.08265e-05
4.26017e-06
3.14559e-05
3.23052e-06
3.16713e-05
2.48762e-06
3.17316e-05
1.83799e-06
3.17343e-05
1.37211e-06
3.17189e-05
1.00448e-06
3.16993e-05
7.34048e-07
3.16809e-05
5.3494e-07
3.16662e-05
3.73989e-07
3.16538e-05
2.77681e-07
1.55057e-07
2.15622e-05
5.0945e-08
2.1592e-05
1.52258e-07
2.16309e-05
2.59179e-07
2.16742e-05
3.6815e-07
2.17182e-05
4.75627e-07
2.17601e-05
5.77995e-07
2.17975e-05
6.71646e-07
2.18273e-05
7.52964e-07
2.18469e-05
8.182e-07
2.18525e-05
8.64178e-07
2.18514e-05
8.87622e-07
2.18261e-05
8.83593e-07
2.17619e-05
8.54576e-07
2.1649e-05
7.95697e-07
2.14702e-05
7.12849e-07
2.12301e-05
6.14752e-07
2.09513e-05
5.11938e-07
2.06e-05
4.22964e-07
2.01896e-05
3.43494e-07
1.97471e-05
2.84377e-07
1.9292e-05
2.43036e-07
1.88384e-05
2.18967e-07
1.83958e-05
2.11314e-07
1.79738e-05
2.22574e-07
1.75945e-05
2.58515e-07
1.72472e-05
3.23105e-07
1.69348e-05
4.18378e-07
1.66626e-05
5.67197e-07
1.6442e-05
7.77506e-07
1.63076e-05
1.07642e-06
1.62785e-05
1.46482e-06
1.64415e-05
1.9807e-06
1.71041e-05
2.60906e-06
1.85475e-05
3.31773e-06
2.1222e-05
4.13838e-06
2.5526e-05
4.74757e-06
3.07538e-05
5.18713e-06
3.48024e-05
4.93023e-06
3.72099e-05
4.39236e-06
3.84784e-05
3.70441e-06
3.90663e-05
2.90199e-06
3.93626e-05
2.28126e-06
3.95086e-05
1.72495e-06
3.95862e-05
1.30912e-06
3.96262e-05
9.72612e-07
3.96475e-05
7.1823e-07
3.96583e-05
5.27926e-07
3.96636e-05
3.71191e-07
3.96658e-05
2.76883e-07
1.5459e-07
2.70073e-05
3.68249e-08
2.70456e-05
1.17878e-07
2.70985e-05
2.09902e-07
2.71623e-05
3.07752e-07
2.72338e-05
4.06721e-07
2.73109e-05
5.01998e-07
2.7392e-05
5.89216e-07
2.7476e-05
6.63278e-07
2.7569e-05
7.21006e-07
2.76626e-05
7.57727e-07
2.77508e-05
7.72384e-07
2.78233e-05
7.61402e-07
2.78653e-05
7.28827e-07
2.78522e-05
6.75753e-07
2.77597e-05
6.06674e-07
2.75848e-05
5.3127e-07
2.72915e-05
4.63665e-07
2.6885e-05
4.07865e-07
2.64212e-05
3.70653e-07
2.59095e-05
3.46498e-07
2.53753e-05
3.39807e-07
2.48428e-05
3.46139e-07
2.43271e-05
3.68542e-07
2.38441e-05
4.09651e-07
2.34041e-05
4.79702e-07
2.30283e-05
5.74404e-07
2.27555e-05
7.2134e-07
2.26057e-05
9.02487e-07
2.2609e-05
1.17663e-06
2.27906e-05
1.49978e-06
2.33504e-05
1.91602e-06
2.45139e-05
2.42792e-06
2.64718e-05
2.94534e-06
2.95139e-05
3.51871e-06
3.3563e-05
3.97766e-06
3.83426e-05
4.36092e-06
4.23828e-05
4.3422e-06
4.51544e-05
3.95022e-06
4.68753e-05
3.50529e-06
4.79368e-05
2.98401e-06
4.85614e-05
2.40736e-06
4.89641e-05
1.92912e-06
4.92197e-05
1.49213e-06
4.93919e-05
1.14977e-06
4.9506e-05
8.67209e-07
4.95835e-05
6.46992e-07
4.96355e-05
4.80403e-07
4.96693e-05
3.4042e-07
4.96929e-05
2.54997e-07
1.41983e-07
3.38421e-05
2.19628e-08
3.38868e-05
7.81263e-08
3.39522e-05
1.49606e-07
3.40361e-05
2.28927e-07
3.41372e-05
3.10548e-07
3.42571e-05
3.89613e-07
3.43932e-05
4.60584e-07
3.45449e-05
5.1815e-07
3.47107e-05
5.595e-07
3.48864e-05
5.81387e-07
3.5066e-05
5.8298e-07
3.52371e-05
5.6515e-07
3.53861e-05
5.30723e-07
3.55021e-05
4.88498e-07
3.55428e-05
4.46164e-07
3.54711e-05
4.21771e-07
3.52619e-05
4.25947e-07
3.4917e-05
4.4449e-07
3.44673e-05
4.66654e-07
3.39639e-05
4.86236e-07
3.34564e-05
5.05034e-07
3.29957e-05
5.37899e-07
3.25868e-05
5.84915e-07
3.22525e-05
6.51862e-07
3.20218e-05
7.44818e-07
3.19289e-05
8.56883e-07
3.2026e-05
1.01431e-06
3.23619e-05
1.20155e-06
3.29984e-05
1.44747e-06
3.41576e-05
1.71404e-06
3.58454e-05
2.05035e-06
3.82107e-05
2.36683e-06
4.15855e-05
2.69796e-06
4.54818e-05
2.95953e-06
4.93549e-05
3.12617e-06
5.2783e-05
3.19506e-06
5.54713e-05
3.04434e-06
5.73639e-05
2.77808e-06
5.87268e-05
2.47061e-06
5.9725e-05
2.12497e-06
6.04364e-05
1.75575e-06
6.09657e-05
1.42925e-06
6.1348e-05
1.12773e-06
6.16289e-05
8.8165e-07
6.18315e-05
6.74406e-07
6.19774e-05
5.0849e-07
6.20824e-05
3.80786e-07
6.21548e-05
2.71673e-07
6.22073e-05
2.04521e-07
1.12641e-07
4.24248e-05
7.586e-09
4.24741e-05
3.53092e-08
4.25547e-05
7.61002e-08
4.26664e-05
1.25092e-07
4.28083e-05
1.77351e-07
4.29783e-05
2.29338e-07
4.31747e-05
2.75151e-07
4.33977e-05
3.07003e-07
4.36452e-05
3.24581e-07
4.39118e-05
3.27076e-07
4.41955e-05
3.14858e-07
4.44821e-05
2.9008e-07
4.47578e-05
2.57541e-07
4.5003e-05
2.29971e-07
4.51896e-05
2.22604e-07
4.52866e-05
2.57813e-07
4.52643e-05
3.49865e-07
4.51324e-05
4.55576e-07
4.49456e-05
5.25484e-07
4.47552e-05
5.66812e-07
4.46044e-05
5.95377e-07
4.45254e-05
6.35132e-07
4.45538e-05
6.85984e-07
4.47292e-05
7.50464e-07
4.51038e-05
8.237e-07
4.57088e-05
9.0584e-07
4.65676e-05
9.91776e-07
4.78382e-05
1.10358e-06
4.95701e-05
1.20742e-06
5.179e-05
1.31884e-06
5.4441e-05
1.4363e-06
5.73897e-05
1.52347e-06
6.04404e-05
1.62528e-06
6.34042e-05
1.65256e-06
6.60858e-05
1.66372e-06
6.84317e-05
1.62939e-06
7.03572e-05
1.55464e-06
7.19392e-05
1.41511e-06
7.32344e-05
1.28041e-06
7.42989e-05
1.11334e-06
7.51459e-05
9.39932e-07
7.5821e-05
7.76333e-07
7.63423e-05
6.2394e-07
7.6744e-05
4.9435e-07
7.70476e-05
3.82357e-07
7.72743e-05
2.90643e-07
7.74422e-05
2.19368e-07
7.75601e-05
1.58172e-07
7.76462e-05
1.20954e-07
6.61869e-08
5.32001e-05
5.32432e-05
5.33275e-05
5.34615e-05
5.36485e-05
5.38888e-05
5.41765e-05
5.4499e-05
5.4844e-05
5.51951e-05
5.55379e-05
5.58599e-05
5.61532e-05
5.64218e-05
5.66844e-05
5.69839e-05
5.73794e-05
5.78918e-05
5.84961e-05
5.91759e-05
5.9934e-05
6.07951e-05
6.17834e-05
6.29241e-05
6.4227e-05
6.57087e-05
6.73706e-05
6.92287e-05
7.12344e-05
7.33485e-05
7.55266e-05
7.76921e-05
7.98304e-05
8.18607e-05
8.37816e-05
8.55729e-05
8.72296e-05
8.87117e-05
9.00324e-05
9.11754e-05
9.21416e-05
9.29413e-05
9.35855e-05
9.40972e-05
9.44936e-05
9.47951e-05
9.50225e-05
9.5186e-05
9.531e-05
)
;

boundaryField
{
    AXIS
    {
        type            empty;
        value           nonuniform 0();
    }
    OUTLET
    {
        type            calculated;
        value           nonuniform List<scalar> 
25
(
1.88776e-07
5.66824e-07
9.45499e-07
1.32483e-06
1.70502e-06