/*--------------------------------*- C++ -*----------------------------------*\
| =========                 |                                                 |
| \\      /  F ield         | OpenFOAM: The Open Source CFD Toolbox           |
|  \\    /   O peration     | Version:  2.4.x                                 |
|   \\  /    A nd           | Web:      www.OpenFOAM.org                      |
|    \\/     M anipulation  |                                                 |
\*---------------------------------------------------------------------------*/
FoamFile
{
    version     2.0;
    format      ascii;
    class       volScalarField;
    location    "0.06";
    object      rho;
}
// * * * * * * * * * * * * * * * * * * * * * * * * * * * * * * * * * * * * * //

dimensions      [1 -3 0 0 0 0 0];

internalField   nonuniform List<scalar> 
1250
(
1.00246
0.892587
0.80058
0.72904
0.670854
0.623116
0.583113
0.549026
0.518226
0.485955
0.457309
0.432401
0.409568
0.388699
0.369903
0.352469
0.337072
0.323731
0.311425
0.299937
0.289209
0.279133
0.269711
0.261845
0.253524
0.245534
0.238109
0.23129
0.225013
0.219177
0.213821
0.208953
0.203906
0.20057
0.197933
0.194899
0.195357
0.210708
0.28805
0.462676
0.807756
1.07622
1.15815
1.17582
1.1794
1.1801
1.18022
1.18025
1.18025
1.18025
0.994979
0.87584
0.783907
0.713653
0.657461
0.611938
0.574089
0.541897
0.50836
0.477133
0.449586
0.425598
0.403488
0.383456
0.365209
0.348274
0.333408
0.320485
0.30848
0.297287
0.286788
0.276937
0.267732
0.260046
0.252324
0.244424
0.237134
0.230395
0.224228
0.218464
0.21319
0.208382
0.203378
0.200087
0.19755
0.194599
0.195325
0.211093
0.288894
0.46397
0.809128
1.07676
1.15827
1.17584
1.17941
1.1801
1.18022
1.18025
1.18025
1.18025
0.972385
0.832013
0.742266
0.676878
0.626965
0.588164
0.553252
0.518188
0.486513
0.458023
0.432878
0.410848
0.390624
0.372175
0.35505
0.33929
0.325575
0.313475
0.302166
0.291561
0.281581
0.272232
0.263483
0.256208
0.249515
0.242012
0.234985
0.228431
0.222487
0.21689
0.211787
0.20712
0.202315
0.199068
0.196721
0.193962
0.195257
0.212079
0.291002
0.46745
0.812986
1.07826
1.15857
1.1759
1.17942
1.1801
1.18022
1.18025
1.18025
1.18025
0.909755
0.747286
0.669457
0.620763
0.581759
0.544214
0.511257
0.481961
0.455059
0.430501
0.409018
0.39003
0.37232
0.355856
0.340614
0.326542
0.314377
0.303415
0.293047
0.283279
0.274112
0.265492
0.25745
0.250746
0.244554
0.238557
0.23183
0.225624
0.219938
0.214593
0.209755
0.205301
0.200764
0.197736
0.195534
0.193091
0.1953
0.213722
0.294427
0.473401
0.819579
1.08079
1.15908
1.17599
1.17943
1.1801
1.18023
1.18025
1.18025
1.18025
0.725235
0.59848
0.57011
0.537715
0.51009
0.485487
0.461845
0.439312
0.417947
0.39797
0.380878
0.365118
0.350367
0.336584
0.323523
0.311144
0.300754
0.291029
0.281857
0.273171
0.265003
0.257318
0.250078
0.244032
0.238455
0.233196
0.227876
0.22204
0.216707
0.211721
0.207197
0.202985
0.198836
0.196061
0.194057
0.192108
0.195553
0.216126
0.299115
0.48196
0.828828
1.08426
1.15978
1.17612
1.17946
1.18011
1.18023
1.18025
1.18025
1.18025
0.336989
0.428851
0.448427
0.444467
0.433237
0.419822
0.405
0.389518
0.374859
0.361328
0.34984
0.338481
0.327483
0.315907
0.304831
0.294427
0.285725
0.277431
0.269527
0.262003
0.254946
0.248256
0.241921
0.236527
0.231623
0.226926
0.222457
0.217875
0.21296
0.208342
0.204212
0.200343
0.196606
0.194141
0.192377
0.191269
0.196103
0.219341
0.304971
0.493385
0.840558
1.08856
1.16063
1.17628
1.17948
1.18011
1.18023
1.18025
1.18025
1.18025
0.218183
0.318427
0.360438
0.372441
0.372683
0.365948
0.356909
0.346839
0.33639
0.327044
0.318655
0.31025
0.302048
0.294052
0.286146
0.277723
0.270484
0.263549
0.256902
0.250561
0.24459
0.238878
0.233399
0.228651
0.224409
0.220338
0.216424
0.212692
0.208858
0.20472
0.200995
0.197477
0.194224
0.192119
0.190704
0.190655
0.197372
0.223528
0.312113
0.507574
0.854496
1.09354
1.16162
1.17646
1.17952
1.18012
1.18023
1.18025
1.18025
1.18025
0.188036
0.279618
0.320435
0.331149
0.332837
0.327505
0.320347
0.312602
0.304665
0.298086
0.291894
0.285676
0.279503
0.273492
0.267652
0.262261
0.25628
0.250531
0.244988
0.239666
0.234581
0.229697
0.225025
0.22084
0.217216
0.213744
0.210402
0.207223
0.204173
0.200984
0.1977
0.194592
0.191839
0.190124
0.189189
0.190413
0.198815
0.228741
0.320648
0.524471
0.870259
1.099
1.16269
1.17665
1.17955
1.18012
1.18023
1.18025
1.18025
1.18025
0.193294
0.28721
0.320209
0.319043
0.311941
0.304901
0.296407
0.288656
0.281535
0.276045
0.270851
0.265808
0.260897
0.256153
0.251521
0.247445
0.243283
0.238497
0.23385
0.229386
0.225121
0.221045
0.21712
0.213509
0.210463
0.207541
0.204736
0.202077
0.199509
0.197057
0.194536
0.191854
0.189631
0.188344
0.188014
0.190583
0.200893
0.23519
0.33045
0.544347
0.88733
1.10473
1.16381
1.17685
1.17959
1.18013
1.18023
1.18025
1.18025
1.18025
0.264875
0.36859
0.374489
0.338645
0.314664
0.297869
0.285528
0.275308
0.266808
0.259546
0.253427
0.248083
0.243272
0.238972
0.23514
0.232797
0.230343
0.226811
0.223182
0.219625
0.216237
0.212977
0.20992
0.207016
0.204471
0.202048
0.199706
0.197516
0.195398
0.193421
0.191585
0.189479
0.187794
0.186951
0.18725
0.191213
0.2038
0.242799
0.341359
0.566661
0.906812
1.11049
1.16492
1.17705
1.17962
1.18013
1.18023
1.18025
1.18025
1.18025
0.762918
0.594351
0.500696
0.407383
0.347102
0.312235
0.289742
0.273722
0.263043
0.25417
0.245923
0.238956
0.233222
0.228205
0.224113
0.221847
0.219719
0.216828
0.21402
0.211301
0.208707
0.206191
0.203816
0.201519
0.19941
0.197403
0.195524
0.193734
0.192039
0.190465
0.189019
0.187621
0.186464
0.186105
0.187181
0.192598
0.20766
0.251595
0.354094
0.592115
0.928476
1.11626
1.16604
1.17726
1.17965
1.18014
1.18023
1.18025
1.18025
1.18025
1.02431
0.825067
0.690223
0.550253
0.436966
0.363565
0.318035
0.290765
0.271715
0.257953
0.248061
0.239883
0.233287
0.227743
0.223294
0.218745
0.214621
0.211245
0.208347
0.205755
0.203369
0.201171
0.199138
0.197217
0.195467
0.19384
0.192339
0.190935
0.189609
0.188445
0.187368
0.18652
0.185909
0.186126
0.188138
0.195463
0.213289
0.26262
0.370558
0.622986
0.952229
1.12239
1.16723
1.17748
1.17969
1.18014
1.18023
1.18025
1.18025
1.18025
1.11321
0.976859
0.862461
0.735051
0.601513
0.485485
0.398866
0.341698
0.304998
0.28064
0.263317
0.249849
0.239692
0.231697
0.225142
0.21965
0.214958
0.210931
0.207431
0.204354
0.201642
0.199244
0.197086
0.195149
0.193501
0.192144
0.190915
0.189819
0.188824
0.187969
0.187235
0.186843
0.186695
0.187568
0.190753
0.200149
0.2217
0.276459
0.393464
0.662332
0.979258
1.12918
1.16858
1.17773
1.17974
1.18015
1.18023
1.18025
1.18025
1.18025
1.14449
1.06063
0.974234
0.883108
0.777976
0.666595
0.558207
0.464496
0.393163
0.341163
0.305453
0.280089
0.261751
0.248034
0.237138
0.228477
0.221498
0.215736
0.210997
0.207059
0.203795
0.201035
0.198669
0.196654
0.194999
0.193716
0.192615
0.191662
0.190836
0.190179
0.18967
0.189393
0.189738
0.191352
0.195827
0.207538
0.23451
0.295367
0.426778
0.71314
1.00975
1.13668
1.1701
1.17803
1.17979
1.18016
1.18023
1.18025
1.18025
1.18025
1.15791
1.10394
1.04449
0.97735
0.904686
0.823604
0.73634
0.64503
0.555661
0.475454
0.409253
0.358977
0.32195
0.293779
0.272643
0.256467
0.243893
0.234044
0.226024
0.219617
0.214612
0.210567
0.207263
0.2046
0.202538
0.200913
0.19954
0.19838
0.197201
0.19625
0.195658
0.19564
0.196439
0.198891
0.205137
0.219194
0.252439
0.322419
0.476558
0.777785
1.0428
1.14472
1.1718
1.17837
1.17985
1.18017
1.18024
1.18025
1.18025
1.18025
1.16497
1.12826
1.08671
1.03997
0.986955
0.927458
0.866347
0.7973
0.725343
0.650536
0.577354
0.507837
0.445367
0.393038
0.351312
0.318931
0.29413
0.275252
0.26092
0.249833
0.241132
0.234232
0.22872
0.224287
0.220576
0.21742
0.214705
0.212357
0.210364
0.208745
0.207634
0.207471
0.208812
0.212065
0.220242
0.237925
0.279418
0.363336
0.551249
0.854954
1.07614
1.15282
1.17358
1.17873
1.17992
1.18018
1.18024
1.18025
1.18025
1.18025
1.16928
1.14327
1.11353
1.08001
1.0423
0.999846
0.952048
0.901109
0.848326
0.791064
0.732142
0.671291
0.608815
0.547175
0.489015
0.437059
0.39313
0.357969
0.330868
0.309612
0.292974
0.279649
0.268902
0.260126
0.252799
0.246685
0.241456
0.236955
0.233172
0.230085
0.22798
0.227324
0.229013
0.233182
0.243099
0.267403
0.321247
0.428707
0.658016
0.941746
1.10694
1.16045
1.17533
1.1791
1.18
1.1802
1.18024
1.18025
1.18025
1.18025
1.17221
1.15336
1.13172
1.10721
1.07965
1.04872
1.01406
0.975253
0.932803
0.88928
0.844779
0.795871
0.74284
0.689409
0.633897
0.579878
0.528099
0.480992
0.440365
0.406372
0.378103
0.354584
0.335184
0.318912
0.30512
0.293399
0.283398
0.274887
0.267895
0.262372
0.258571
0.257248
0.259338
0.265037
0.279465
0.315821
0.388545
0.536911
0.793931
1.02634
1.1328
1.16711
1.17689
1.17945
1.18007
1.18021
1.18024
1.18025
1.18025
1.18025
1.17434
1.16059
1.14475
1.12671
1.10632
1.08337
1.0577
1.02975
0.998691
0.964121
0.925601
0.884383
0.842957
0.797825
0.750924
0.702232
0.65236
0.602904
0.556436
0.514561
0.477553
0.445369
0.417646
0.393736
0.373133
0.3555
0.340478
0.327793
0.317394
0.309367
0.30417
0.30286
0.306246
0.315711
0.341334
0.397016
0.502835
0.699584
0.935012
1.09118
1.15234
1.17234
1.17817
1.17974
1.18013
1.18022
1.18024
1.18025
1.18025
1.18025
1.17598
1.16604
1.15453
1.14135
1.12651
1.10982
1.09115
1.07029
1.04695
1.02079
0.991347
0.958082
0.922006
0.883131
0.844703
0.802016
0.756066
0.708453
0.661488
0.617095
0.576235
0.539353
0.50661
0.477683
0.452562
0.430782
0.412305
0.396879
0.384697
0.376029
0.371815
0.373388
0.381076
0.401728
0.44893
0.535641
0.686201
0.883719
1.05235
1.1343
1.16564
1.176
1.1791
1.17996
1.18018
1.18023
1.18025
1.18025
1.18025
1.18025
1.17731
1.17042
1.16237
1.15307
1.14241
1.13029
1.11661
1.10119
1.08383
1.06422
1.04227
1.01862
0.991712
0.960842
0.925421
0.885325
0.845565
0.803566
0.7599
0.71696
0.676179
0.638444
0.604123
0.573302
0.54646
0.523713
0.504762
0.489754
0.479219
0.473927
0.47542
0.483721
0.505755
0.550267
0.626062
0.744757
0.895862
1.04018
1.12285
1.15964
1.17357
1.17826
1.17969
1.1801
1.18021
1.18024
1.18025
1.18025
1.18025
1.18025
1.17837
1.17387
1.16847
1.1621
1.15466
1.14609
1.13631
1.12521
1.11285
1.09941
1.08431
1.06716
1.04743
1.02445
0.997501
0.967306
0.932886
0.894619
0.856336
0.81827
0.781405
0.746848
0.715288
0.687131
0.662765
0.642475
0.627263
0.617466
0.613972
0.617061
0.628512
0.654887
0.698584
0.764685
0.85443
0.96448
1.06308
1.12634
1.15854
1.17243
1.17767
1.17946
1.18003
1.18019
1.18023
1.18025
1.18025
1.18025
1.18025
1.18025
1.17922
1.17657
1.17321
1.16908
1.16415
1.15846
1.15203
1.14479
1.13669
1.12762
1.11741
1.1058
1.09239
1.07729
1.05964
1.0387
1.01421
0.986456
0.956131
0.924654
0.89367
0.865954
0.841387
0.820193
0.803001
0.790393
0.783112
0.782192
0.787452
0.802617
0.829086
0.866864
0.920126
0.985439
1.05098
1.10557
1.14274
1.16368
1.17368
1.17788
1.17946
1.18
1.18018
1.18023
1.18024
1.18025
1.18025
1.18025
1.18025
1.18025
1.17991
1.17873
1.17693
1.17462
1.17181
1.16849
1.16466
1.16032
1.15545
1.15
1.14399
1.13743
1.12999
1.12135
1.11112
1.09892
1.08452
1.06802
1.04995
1.03107
1.01242
0.994996
0.979746
0.96759
0.959386
0.955911
0.956658
0.963188
0.977907
0.99991
1.02822
1.06039
1.09314
1.12273
1.14616
1.16227
1.17177
1.17665
1.17885
1.17975
1.18008
1.1802
1.18023
1.18025
1.18025
1.18025
1.18025
1.18025
1.18025
1.18025
1.18024
1.17997
1.17946
1.17869
1.17768
1.17641
1.1749
1.17316
1.17128
1.16928
1.16705
1.1646
1.16188
1.15881
1.15527
1.15112
1.1463
1.14088
1.13511
1.12929
1.12383
1.11913
1.11557
1.11353
1.11326
1.11502
1.1189
1.12495
1.13279
1.14165
1.1507
1.15911
1.1662
1.17161
1.17537
1.1777
1.179
1.17975
1.1801
1.1802
1.18023
1.18024
1.18025
1.18025
1.18025
1.18025
1.18025
1.18025
1.18025
1.18025
)
;

boundaryField
{
    AXIS
    {
        type            empty;
    }
    OUTLET
    {
        type            calculated;
        value           uniform 1.18025;
    }
    COFLOW
    {
        type            calculated;
        value           nonuniform List<scalar> 
15
(
1.18028
1.18028
1.18027
1.18026
1.18026
1.18026
1.18026
1.18026
1.18026
1.18025
1.18025
1.18025
1.18025
1.18025
1.18025
)
;
    }
    PILOT
    {
        type            calculated;
        value           nonuniform List<scalar> 5(0.156771 0.156775 0.156788 0.156793 0.156796);
    }
    FUEL
    {
        type            calculated;
        value           nonuniform List<scalar> 5(1.05079 1.05076 1.05089 1.05127 1.0515);
    }
    WALL
    {
        type            calculated;
        value           nonuniform List<scalar> 
50
(
1.18024
1.17997
1.17946
1.17869
1.17768
1.17641
1.1749
1.17316
1.17128
1.16928
1.16705
1.1646
1.16188
1.15881
1.15527
1.15112
1.1463
1.14088
1.13511
1.12929
1.12383
1.11913
1.11557
1.11353
1.11326
1.11502
1.1189
1.12495
1.13279
1.14165
1.1507
1.15911
1.1662
1.17161
1.17537
1.1777
1.179
1.17975
1.1801
1.1802
1.18023
1.18024
1.18025
1.18025
1.18025
1.18025
1.18025
1.18025
1.18025
1.18025
)
;
    }
    front
    {
        type            wedge;
    }
    back
    {
        type            wedge;
    }
}


// ************************************************************************* //
