/*--------------------------------*- C++ -*----------------------------------*\
| =========                 |                                                 |
| \\      /  F ield         | OpenFOAM: The Open Source CFD Toolbox           |
|  \\    /   O peration     | Version:  2.4.x                                 |
|   \\  /    A nd           | Web:      www.OpenFOAM.org                      |
|    \\/     M anipulation  |                                                 |
\*---------------------------------------------------------------------------*/
FoamFile
{
    version     2.0;
    format      ascii;
    class       volScalarField;
    location    "0.06";
    object      T;
}
// * * * * * * * * * * * * * * * * * * * * * * * * * * * * * * * * * * * * * //

dimensions      [0 0 0 1 0 0 0];

internalField   nonuniform List<scalar> 
1250
(
308.11
345.551
385.192
423.071
459.977
495.549
530.005
563.455
597.493
637.368
677.476
716.716
756.861
797.671
838.379
879.992
920.309
958.332
996.298
1034.54
1073.02
1111.86
1150.85
1185.67
1224.32
1263.76
1302.82
1341.03
1378.33
1415.13
1450.9
1485.18
1522.63
1549.15
1572.73
1606.45
1630.39
1551.13
1164.71
739.112
427.831
322.147
299.561
295.098
294.21
294.038
294.007
294.001
294
294
310.401
352.137
393.381
432.242
469.471
504.822
538.655
571.288
609.293
649.372
689.354
728.429
768.534
808.867
849.456
890.898
930.742
968.37
1006.15
1044.12
1082.43
1121.05
1159.74
1194.26
1230.76
1270.11
1308.8
1346.87
1383.82
1420.43
1455.9
1489.96
1527.31
1553.62
1576.55
1609.76
1631.44
1548.79
1161.51
737.108
427.115
321.987
299.532
295.093
294.209
294.038
294.007
294.001
294
294
317.597
370.606
415.476
455.943
492.776
525.971
559.807
598.016
637.213
677.061
716.588
755.235
794.535
834.107
874.487
915.235
953.897
990.804
1027.96
1065.43
1103.28
1141.28
1179.33
1213.05
1245.88
1284.12
1322.17
1359.86
1396.09
1432.23
1467.07
1500.6
1536.97
1563.19
1584.92
1616.95
1633.79
1542.75
1153.59
731.768
425.114
321.543
299.453
295.079
294.206
294.038
294.007
294.001
294
294
339.394
412.483
460.964
498.086
532.428
569.701
606.874
644.108
682.428
721.526
759.606
796.793
834.862
873.623
912.825
952.267
989.168
1024.96
1061.27
1097.92
1134.71
1171.65
1208.38
1240.91
1272.62
1304.85
1342.3
1378.96
1414.5
1449.85
1483.62
1516.31
1551.35
1576.25
1597.19
1627.18
1636.17
1532.7
1140.95
722.811
421.739
320.8
299.322
295.055
294.202
294.037
294.007
294.001
294
294
424.998
515.345
543.366
577.328
609.468
640.947
674.138
708.933
745.252
782.66
817.874
853.266
889.284
925.802
963.185
1001.41
1035.97
1070.56
1105.38
1140.53
1175.71
1210.88
1246.04
1277.13
1307.27
1337.1
1368.53
1404.2
1438.64
1472.65
1505.12
1536.86
1569.77
1593.13
1612.93
1639.47
1637.71
1518.03
1124.06
710.304
417.093
319.783
299.144
295.024
294.197
294.036
294.006
294.001
294
294
920.359
726.448
696.406
703.382
721.977
745.123
772.301
802.817
834.105
865.34
893.869
923.891
954.894
989.606
1025.25
1061.17
1093.31
1125.83
1158.72
1191.88
1224.83
1257.83
1290.83
1320.43
1348.64
1376.9
1405.01
1434.84
1467.82
1500.47
1531.14
1561.24
1591.8
1613.17
1631.49
1651.69
1637.63
1498.65
1103.63
694.257
411.346
318.531
298.926
294.985
294.19
294.035
294.006
294.001
294
294
1464.91
995.714
878.087
848.594
847.064
861.673
882.562
907.343
934.78
960.881
985.695
1012
1039.13
1067.1
1096.29
1128.97
1158.77
1188.9
1219.35
1249.95
1280.3
1310.82
1341.57
1369.52
1395.62
1421.73
1447.88
1473.87
1501.35
1531.82
1560.49
1588.86
1616.39
1635.29
1651.19
1662.95
1632.07
1473.83
1079.69
675.307
404.72
317.094
298.675
294.941
294.182
294.034
294.006
294.001
294
294
1739.3
1158.02
1005.11
968.039
959.691
972.51
991.834
1014.4
1039.12
1060.72
1082.11
1104.71
1128.32
1152.44
1177.04
1200.88
1228.18
1255.69
1283.51
1311.53
1339.56
1367.77
1396.02
1422.48
1446.37
1470.15
1493.92
1517.41
1540.8
1565.89
1592.16
1618.2
1642.34
1658.39
1670.64
1671.72
1625.64
1443.78
1052.38
654.045
397.478
315.532
298.402
294.892
294.174
294.032
294.006
294.001
294
294
1711.99
1152.78
1026.08
1021.59
1038.18
1057.02
1083.01
1108.57
1133.66
1153.92
1174.09
1194.72
1215.81
1237.14
1258.92
1278.92
1300.04
1325.07
1350.51
1376.03
1401.47
1426.86
1452.35
1476.8
1498.25
1519.57
1540.79
1561.62
1582.44
1603.05
1624.47
1647.82
1668.02
1680.75
1688.04
1677.29
1614.56
1407.89
1022.66
630.678
389.922
313.912
298.118
294.842
294.165
294.031
294.006
294.001
294
294
1272.19
917.57
896.001
979.819
1045.11
1096.36
1137.46
1174.44
1207.52
1237.6
1264.2
1288.6
1311.54
1332.9
1352.88
1365.59
1379.41
1399.7
1421.36
1443.43
1465.26
1487.16
1508.52
1529.61
1548.61
1567.34
1586.05
1604.17
1622.26
1639.73
1656.42
1675.66
1691.5
1700.58
1702.4
1678.88
1597.43
1367.5
991.492
606.351
381.643
312.299
297.835
294.792
294.156
294.03
294.005
294.001
294
294
452.708
577.668
681.011
828.862
963.241
1061.34
1135.75
1195.34
1238.3
1276.8
1315.64
1350.2
1379.98
1407.29
1430.43
1443.06
1455.41
1472.94
1490.7
1508.57
1526.26
1544.1
1561.52
1579.01
1595.56
1611.84
1627.59
1643.08
1658.23
1672.75
1686.46
1700.18
1711.44
1716.32
1711.1
1674.17
1573.83
1323.4
957.385
580.789
372.839
310.699
297.552
294.741
294.148
294.028
294.005
294.001
294
294
338.297
418.669
498.485
621.715
776.955
926.226
1050.83
1141.07
1214.22
1272.98
1318.58
1358.98
1393.44
1423.89
1449.28
1476.81
1502.41
1523.7
1542.54
1560.01
1576.7
1592.68
1607.98
1623.01
1637.16
1650.82
1663.84
1676.41
1688.67
1699.79
1710.36
1719.22
1725.53
1725.21
1711.41
1657.92
1538.9
1271.76
916.534
552.529
363.642
309.019
297.251
294.686
294.138
294.027
294.005
294.001
294
294
311.526
354.434
400.645
468.74
570.45
703.087
850.228
985.88
1097.83
1186.47
1258.5
1320.81
1371.86
1414.69
1451.78
1484.34
1513.31
1539.12
1562.36
1583.5
1602.76
1620.4
1636.8
1652.05
1665.48
1676.95
1687.66
1697.58
1706.84
1715.07
1722.39
1726.77
1728.61
1722.27
1697.96
1628.32
1487.77
1212.07
865.065
520.255
353.711
307.178
296.911
294.623
294.127
294.025
294.005
294.001
294
294
303.092
326.767
355.342
391.45
443.474
516.187
614.218
734.87
863.905
990.15
1100.18
1194.09
1272.3
1337.65
1394.38
1442.87
1484.29
1520.25
1551.13
1577.75
1600.57
1620.5
1638.1
1653.57
1666.65
1677.11
1686.35
1694.58
1701.9
1707.9
1712.65
1715.18
1712.47
1699.54
1664.68
1580.2
1414.29
1138.78
799.613
483.755
343.14
305.169
296.527
294.55
294.114
294.023
294.004
294.001
294
294
299.613
314.092
331.751
354.243
382.305
419.393
468.309
533.428
617.479
719.155
832.17
944.765
1049.15
1145.04
1229.12
1302.11
1364.94
1418.37
1464.98
1504.39
1536.6
1563.66
1586.52
1605.46
1620.53
1632.66
1643.12
1652.13
1661.24
1668.59
1673.09
1673.02
1666.41
1647.05
1600.6
1506.38
1321.42
1047.78
718.248
444.102
332.372
303.044
296.103
294.466
294.099
294.02
294.004
294.001
294
294
297.818
307.4
319.019
333.186
350.867
373.094
399.069
433.154
475.489
529.279
595.125
674.86
767.203
866.45
966.002
1060.44
1146.14
1221.1
1284.75
1338.61
1384.05
1422.23
1454.23
1480.97
1504.1
1524.32
1542.13
1557.84
1571.35
1582.39
1589.84
1590.44
1580.25
1556.91
1502.52
1398.11
1201.4
934.39
622.989
404.512
322.173
300.933
295.656
294.376
294.081
294.017
294.003
294.001
294
294
296.732
303.409
311.425
320.986
332.469
346.426
363.618
383.931
407.527
436.643
471.287
513.357
565.157
627.642
700.732
782.063
867.108
949.695
1024.83
1092.56
1152.08
1204.57
1250.45
1290.53
1325.96
1356.99
1384.63
1409.29
1430.58
1448.31
1460.4
1463.74
1452.83
1427.63
1372.22
1253.7
1052.13
796.223
523.619
367.647
313.292
298.972
295.221
294.284
294.063
294.013
294.003
294.001
294
294
295.999
300.787
306.479
313.191
321.103
330.473
341.649
355.1
371.082
389.034
409.283
434.121
464.703
500.212
543.351
593.094
650.132
712.464
776.672
839.989
901.044
959.005
1012.69
1062.54
1108.76
1151.26
1190.12
1225.26
1255.61
1280.53
1298.06
1303.92
1293.35
1266.34
1203.58
1070.21
876.115
639.308
435.194
337.649
306.205
297.28
294.831
294.199
294.045
294.01
294.002
294
294
294
295.466
298.932
303.028
307.831
313.449
320.025
327.713
336.519
346.877
359.185
373.973
391.21
410.218
433.145
459.831
491.258
528.24
570.859
617.684
666.988
717.601
768.292
818.055
866.432
912.924
956.834
997.672
1034.92
1067.53
1094.05
1111.82
1116.15
1103.97
1071.84
993.848
858.319
681.735
493.002
370.267
317.776
301.059
295.967
294.514
294.127
294.03
294.007
294.001
294
294
294
295.059
297.55
300.489
303.925
307.893
312.477
317.773
323.908
331.058
339.461
349.444
361.456
375.445
391.779
409.388
430.902
456.741
487.005
521.069
557.956
596.854
636.925
677.295
717.459
756.406
793.746
828.42
859.746
886.175
905.948
915.809
911.934
893.946
849.139
761.87
640.955
502.493
391.508
329.386
305.803
297.653
295.054
294.284
294.072
294.017
294.004
294.001
294
294
294
294.729
296.448
298.481
300.867
303.649
306.874
310.601
314.911
319.909
325.748
332.546
340.188
349.323
360.426
374.066
390.808
408.966
430.061
454.435
481.264
509.871
539.55
569.719
599.85
628.797
655.592
679.716
700.106
715.154
722.941
720.684
708.545
678.272
624.408
550.038
463.571
386.273
333.204
308.895
299.179
295.658
294.493
294.137
294.036
294.009
294.002
294
294
294
294
294.466
295.586
296.938
298.553
300.459
302.685
305.267
308.252
311.646
315.421
319.771
324.861
330.918
338.267
347.311
358.027
371.078
386.753
403.829
422.38
442.049
462.231
482.349
501.85
520.048
536.246
549.054
557.622
560.741
557.974
547.965
526.23
493.784
451.664
404.785
359.084
326.094
307.945
299.46
295.944
294.637
294.194
294.055
294.015
294.004
294.001
294
294
294
294
294.255
294.912
295.75
296.785
298.033
299.483
301.141
303.028
305.168
307.6
310.384
313.614
317.427
321.83
327.133
333.655
341.62
351.123
362.13
374.312
387.135
399.382
410.91
421.408
430.33
437.122
441.152
441.677
438.765
430.579
417.001
399.039
376.197
351.522
329.813
313.676
303.564
298.15
295.631
294.586
294.194
294.06
294.017
294.005
294.001
294
294
294
294
294
294.085
294.377
294.822
295.398
296.101
296.933
297.901
299.007
300.256
301.665
303.235
304.967
306.954
309.296
312.114
315.541
319.688
324.572
330.098
336.081
342.206
348.134
353.497
357.894
360.926
362.231
361.958
359.538
354.192
346.482
337.039
326.911
317.21
308.925
302.665
298.508
296.107
294.891
294.344
294.123
294.041
294.013
294.004
294.001
294
294
294
294
294
294
294.003
294.069
294.196
294.386
294.638
294.952
295.328
295.76
296.231
296.733
297.293
297.912
298.603
299.385
300.293
301.364
302.618
304.039
305.57
307.127
308.606
309.889
310.869
311.434
311.511
311.026
309.96
308.309
306.199
303.845
301.477
299.312
297.51
296.147
295.209
294.63
294.309
294.124
294.037
294.012
294.005
294.002
294
294
294
294
294
294
294
294
)
;

boundaryField
{
    AXIS
    {
        type            empty;
    }
    OUTLET
    {
        type            calculated;
        value           uniform 294;
    }
    COFLOW
    {
        type            calculated;
        value           uniform 294;
    }
    PILOT
    {
        type            calculated;
        value           uniform 2102.68;
    }
    FUEL
    {
        type            calculated;
        value           uniform 294;
    }
    WALL
    {
        type            calculated;
        value           nonuniform List<scalar> 
50
(
294.003
294.069
294.196
294.386
294.638
294.952
295.328
295.76
296.231
296.733
297.293
297.912
298.603
299.385
300.293
301.364
302.618
304.039
305.57
307.127
308.606
309.889
310.869
311.434
311.511
311.026
309.96
308.309
306.199
303.845
301.477
299.312
297.51
296.147
295.209
294.63
294.309
294.124
294.037
294.012
294.005
294.002
294
294
294
294
294
294
294
294
)
;
    }
    front
    {
        type            wedge;
    }
    back
    {
        type            wedge;
    }
}


// ************************************************************************* //
