/*--------------------------------*- C++ -*----------------------------------*\
| =========                 |                                                 |
| \\      /  F ield         | OpenFOAM: The Open Source CFD Toolbox           |
|  \\    /   O peration     | Version:  2.4.x                                 |
|   \\  /    A nd           | Web:      www.OpenFOAM.org                      |
|    \\/     M anipulation  |                                                 |
\*---------------------------------------------------------------------------*/
FoamFile
{
    version     2.0;
    format      ascii;
    class       volScalarField;
    location    "0.06";
    object      thermo:psi;
}
// * * * * * * * * * * * * * * * * * * * * * * * * * * * * * * * * * * * * * //

dimensions      [0 -2 2 0 0 0 0];

internalField   nonuniform List<scalar> 
1250
(
1.0013e-05
8.92413e-06
8.00508e-06
7.29003e-06
6.70831e-06
6.23106e-06
5.83101e-06
5.49022e-06
5.18219e-06
4.85952e-06
4.57307e-06
4.32397e-06
4.09567e-06
3.88697e-06
3.69903e-06
3.52467e-06
3.37072e-06
3.23731e-06
3.11425e-06
2.99937e-06
2.89208e-06
2.79134e-06
2.69711e-06
2.61846e-06
2.53524e-06
2.45534e-06
2.38109e-06
2.3129e-06
2.25014e-06
2.19178e-06
2.13822e-06
2.08954e-06
2.03906e-06
2.0057e-06
1.97933e-06
1.94898e-06
1.95356e-06
2.10707e-06
2.88048e-06
4.62677e-06
8.07749e-06
1.07622e-05
1.15815e-05
1.17582e-05
1.1794e-05
1.18009e-05
1.18022e-05
1.18024e-05
1.18025e-05
1.18025e-05
9.93861e-06
8.75644e-06
7.83842e-06
7.13623e-06
6.5745e-06
6.11933e-06
5.74087e-06
5.41894e-06
5.08357e-06
4.77132e-06
4.49585e-06
4.25597e-06
4.03487e-06
3.83456e-06
3.65209e-06
3.48274e-06
3.33408e-06
3.20485e-06
3.0848e-06
2.97287e-06
2.86788e-06
2.76938e-06
2.67733e-06
2.60047e-06
2.52325e-06
2.44424e-06
2.37134e-06
2.30396e-06
2.24229e-06
2.18465e-06
2.1319e-06
2.08382e-06
2.03379e-06
2.00087e-06
1.97549e-06
1.94599e-06
1.95324e-06
2.11092e-06
2.88893e-06
4.6397e-06
8.09122e-06
1.07676e-05
1.15826e-05
1.17584e-05
1.1794e-05
1.18009e-05
1.18022e-05
1.18024e-05
1.18025e-05
1.18025e-05
9.71174e-06
8.31809e-06
7.42209e-06
6.7685e-06
6.26954e-06
5.88157e-06
5.53246e-06
5.18183e-06
4.8651e-06
4.58021e-06
4.32877e-06
4.10847e-06
3.90623e-06
3.72175e-06
3.55049e-06
3.3929e-06
3.25575e-06
3.13475e-06
3.02166e-06
2.91561e-06
2.81581e-06
2.72232e-06
2.63483e-06
2.56209e-06
2.49515e-06
2.42013e-06
2.34985e-06
2.28431e-06
2.22488e-06
2.1689e-06
2.11787e-06
2.0712e-06
2.02315e-06
1.99068e-06
1.96721e-06
1.93962e-06
1.95256e-06
2.12078e-06
2.91001e-06
4.6745e-06
8.1298e-06
1.07826e-05
1.15857e-05
1.1759e-05
1.17941e-05
1.1801e-05
1.18022e-05
1.18024e-05
1.18025e-05
1.18025e-05
9.08298e-06
7.47098e-06
6.69417e-06
6.20742e-06
5.81748e-06
5.44206e-06
5.11252e-06
4.81957e-06
4.55057e-06
4.305e-06
4.09017e-06
3.90029e-06
3.72319e-06
3.55855e-06
3.40614e-06
3.26542e-06
3.14377e-06
3.03415e-06
2.93047e-06
2.83279e-06
2.74112e-06
2.65492e-06
2.5745e-06
2.50747e-06
2.44555e-06
2.38558e-06
2.3183e-06
2.25625e-06
2.19938e-06
2.14593e-06
2.09756e-06
2.05301e-06
2.00764e-06
1.97736e-06
1.95534e-06
1.93091e-06
1.95299e-06
2.13721e-06
2.94425e-06
4.73401e-06
8.19574e-06
1.08078e-05
1.15908e-05
1.17599e-05
1.17943e-05
1.1801e-05
1.18022e-05
1.18024e-05
1.18025e-05
1.18025e-05
7.23912e-06
5.98371e-06
5.70091e-06
5.37699e-06
5.10081e-06
4.85481e-06
4.6184e-06
4.39309e-06
4.17945e-06
3.97969e-06
3.80877e-06
3.65117e-06
3.50366e-06
3.36583e-06
3.23522e-06
3.11144e-06
3.00754e-06
2.91029e-06
2.81857e-06
2.73171e-06
2.65003e-06
2.57318e-06
2.50079e-06
2.44032e-06
2.38455e-06
2.33196e-06
2.27876e-06
2.2204e-06
2.16708e-06
2.11722e-06
2.07198e-06
2.02986e-06
1.98836e-06
1.96061e-06
1.94057e-06
1.92108e-06
1.95552e-06
2.16126e-06
2.99114e-06
4.8196e-06
8.28823e-06
1.08425e-05
1.15978e-05
1.17612e-05
1.17945e-05
1.1801e-05
1.18022e-05
1.18024e-05
1.18025e-05
1.18025e-05
3.37052e-06
4.28865e-06
4.48426e-06
4.4446e-06
4.33233e-06
4.19818e-06
4.04997e-06
3.89516e-06
3.74857e-06
3.61327e-06
3.49839e-06
3.3848e-06
3.27482e-06
3.15907e-06
3.0483e-06
2.94427e-06
2.85725e-06
2.77431e-06
2.69526e-06
2.62003e-06
2.54946e-06
2.48256e-06
2.41921e-06
2.36527e-06
2.31624e-06
2.26926e-06
2.22457e-06
2.17876e-06
2.1296e-06
2.08343e-06
2.04212e-06
2.00344e-06
1.96607e-06
1.94141e-06
1.92377e-06
1.91269e-06
1.96102e-06
2.19341e-06
3.0497e-06
4.93385e-06
8.40554e-06
1.08856e-05
1.16063e-05
1.17627e-05
1.17948e-05
1.18011e-05
1.18022e-05
1.18024e-05
1.18025e-05
1.18025e-05
2.1822e-06
3.18434e-06
3.60438e-06
3.72438e-06
3.7268e-06
3.65945e-06
3.56906e-06
3.46837e-06
3.36389e-06
3.27043e-06
3.18654e-06
3.10249e-06
3.02047e-06
2.94052e-06
2.86146e-06
2.77722e-06
2.70484e-06
2.63549e-06
2.56901e-06
2.50561e-06
2.4459e-06
2.38878e-06
2.33399e-06
2.28652e-06
2.24409e-06
2.20338e-06
2.16425e-06
2.12693e-06
2.08858e-06
2.0472e-06
2.00995e-06
1.97478e-06
1.94225e-06
1.92119e-06
1.90704e-06
1.90654e-06
1.97372e-06
2.23528e-06
3.12113e-06
5.07573e-06
8.54492e-06
1.09354e-05
1.16162e-05
1.17645e-05
1.17951e-05
1.18011e-05
1.18022e-05
1.18024e-05
1.18025e-05
1.18025e-05
1.88051e-06
2.79624e-06
3.20437e-06
3.31148e-06
3.32835e-06
3.27503e-06
3.20345e-06
3.126e-06
3.04663e-06
2.98085e-06
2.91893e-06
2.85676e-06
2.79502e-06
2.73491e-06
2.67652e-06
2.62261e-06
2.5628e-06
2.50531e-06
2.44988e-06
2.39665e-06
2.34581e-06
2.29697e-06
2.25025e-06
2.2084e-06
2.17216e-06
2.13744e-06
2.10403e-06
2.07224e-06
2.04174e-06
2.00985e-06
1.977e-06
1.94593e-06
1.9184e-06
1.90124e-06
1.89189e-06
1.90413e-06
1.98815e-06
2.28741e-06
3.20649e-06
5.2447e-06
8.70256e-06
1.099e-05
1.16269e-05
1.17665e-05
1.17955e-05
1.18012e-05
1.18023e-05
1.18024e-05
1.18025e-05
1.18025e-05
1.93304e-06
2.87214e-06
3.2021e-06
3.19042e-06
3.1194e-06
3.04899e-06
2.96405e-06
2.88655e-06
2.81534e-06
2.76044e-06
2.7085e-06
2.65807e-06
2.60896e-06
2.56153e-06
2.51521e-06
2.47444e-06
2.43283e-06
2.38497e-06
2.3385e-06
2.29386e-06
2.25121e-06
2.21045e-06
2.1712e-06
2.13509e-06
2.10463e-06
2.07541e-06
2.04736e-06
2.02078e-06
1.9951e-06
1.97058e-06
1.94537e-06
1.91854e-06
1.89632e-06
1.88344e-06
1.88014e-06
1.90583e-06
2.00893e-06
2.3519e-06
3.30451e-06
5.44345e-06
8.87327e-06
1.10473e-05
1.1638e-05
1.17685e-05
1.17958e-05
1.18012e-05
1.18023e-05
1.18024e-05
1.18025e-05
1.18025e-05
2.64882e-06
3.68593e-06
3.74489e-06
3.38644e-06
3.14662e-06
2.97867e-06
2.85527e-06
2.75306e-06
2.66806e-06
2.59545e-06
2.53426e-06
2.48082e-06
2.43271e-06
2.38971e-06
2.35139e-06
2.32797e-06
2.30343e-06
2.26811e-06
2.23182e-06
2.19624e-06
2.16237e-06
2.12977e-06
2.0992e-06
2.07016e-06
2.04471e-06
2.02048e-06
1.99706e-06
1.97516e-06
1.95398e-06
1.93422e-06
1.91586e-06
1.89479e-06
1.87794e-06
1.86951e-06
1.8725e-06
1.91213e-06
2.038e-06
2.42799e-06
3.41359e-06
5.66659e-06
9.06808e-06
1.11049e-05
1.16492e-05
1.17705e-05
1.17962e-05
1.18013e-05
1.18023e-05
1.18024e-05
1.18025e-05
1.18025e-05
7.62899e-06
5.94351e-06
5.00694e-06
4.07381e-06
3.471e-06
3.12234e-06
2.8974e-06
2.7372e-06
2.63042e-06
2.54169e-06
2.45922e-06
2.38955e-06
2.33221e-06
2.28205e-06
2.24113e-06
2.21847e-06
2.19719e-06
2.16828e-06
2.14019e-06
2.11301e-06
2.08707e-06
2.06191e-06
2.03816e-06
2.0152e-06
1.9941e-06
1.97403e-06
1.95524e-06
1.93735e-06
1.92039e-06
1.90465e-06
1.8902e-06
1.87621e-06
1.86464e-06
1.86105e-06
1.87182e-06
1.92598e-06
2.0766e-06
2.51595e-06
3.54095e-06
5.92113e-06
9.28472e-06
1.11626e-05
1.16604e-05
1.17726e-05
1.17965e-05
1.18013e-05
1.18023e-05
1.18024e-05
1.18025e-05
1.18025e-05
1.02429e-05
8.25062e-06
6.90218e-06
5.50249e-06
4.36963e-06
3.63563e-06
3.18033e-06
2.90763e-06
2.71714e-06
2.57952e-06
2.4806e-06
2.39883e-06
2.33286e-06
2.27743e-06
2.23294e-06
2.18745e-06
2.14621e-06
2.11245e-06
2.08347e-06
2.05755e-06
2.03369e-06
2.01171e-06
1.99138e-06
1.97217e-06
1.95467e-06
1.9384e-06
1.92339e-06
1.90935e-06
1.89609e-06
1.88445e-06
1.87368e-06
1.8652e-06
1.85909e-06
1.86127e-06
1.88139e-06
1.95463e-06
2.13289e-06
2.62621e-06
3.7056e-06
6.22983e-06
9.52224e-06
1.12239e-05
1.16723e-05
1.17748e-05
1.17969e-05
1.18014e-05
1.18023e-05
1.18025e-05
1.18025e-05
1.18025e-05
1.11319e-05
9.76852e-06
8.62454e-06
7.35045e-06
6.01508e-06
4.85482e-06
3.98864e-06
3.41696e-06
3.04997e-06
2.80639e-06
2.63316e-06
2.49848e-06
2.39692e-06
2.31696e-06
2.25142e-06
2.1965e-06
2.14958e-06
2.10931e-06
2.07431e-06
2.04354e-06
2.01642e-06
1.99244e-06
1.97086e-06
1.95149e-06
1.93501e-06
1.92144e-06
1.90916e-06
1.89819e-06
1.88825e-06
1.8797e-06
1.87235e-06
1.86843e-06
1.86695e-06
1.87568e-06
1.90753e-06
2.00149e-06
2.21701e-06
2.7646e-06
3.93466e-06
6.62328e-06
9.79254e-06
1.12918e-05
1.16858e-05
1.17773e-05
1.17973e-05
1.18015e-05
1.18023e-05
1.18025e-05
1.18025e-05
1.18025e-05
1.14447e-05
1.06062e-05
9.74226e-06
8.83101e-06
7.7797e-06
6.6659e-06
5.58203e-06
4.64494e-06
3.93161e-06
3.41161e-06
3.05451e-06
2.80088e-06
2.6175e-06
2.48034e-06
2.37138e-06
2.28476e-06
2.21498e-06
2.15736e-06
2.10997e-06
2.07059e-06
2.03795e-06
2.01035e-06
1.9867e-06
1.96654e-06
1.94999e-06
1.93716e-06
1.92616e-06
1.91663e-06
1.90837e-06
1.9018e-06
1.8967e-06
1.89394e-06
1.89739e-06
1.91353e-06
1.95828e-06
2.07539e-06
2.34511e-06
2.95367e-06
4.26779e-06
7.13137e-06
1.00975e-05
1.13668e-05
1.1701e-05
1.17803e-05
1.17979e-05
1.18016e-05
1.18023e-05
1.18025e-05
1.18025e-05
1.18025e-05
1.1579e-05
1.10393e-05
1.04448e-05
9.77342e-06
9.04679e-06
8.23598e-06
7.36335e-06
6.45026e-06
5.55658e-06
4.75451e-06
4.09251e-06
3.58976e-06
3.21949e-06
2.93779e-06
2.72643e-06
2.56467e-06
2.43892e-06
2.34044e-06
2.26023e-06
2.19617e-06
2.14612e-06
2.10567e-06
2.07263e-06
2.046e-06
2.02538e-06
2.00913e-06
1.99541e-06
1.98381e-06
1.97201e-06
1.96251e-06
1.95659e-06
1.95641e-06
1.96439e-06
1.98892e-06
2.05138e-06
2.19194e-06
2.5244e-06
3.2242e-06
4.76559e-06
7.77781e-06
1.0428e-05
1.14472e-05
1.17179e-05
1.17836e-05
1.17985e-05
1.18017e-05
1.18023e-05
1.18025e-05
1.18025e-05
1.18025e-05
1.16496e-05
1.12825e-05
1.0867e-05
1.03997e-05
9.86948e-06
9.27452e-06
8.66342e-06
7.97295e-06
7.25339e-06
6.50533e-06
5.77351e-06
5.07835e-06
4.45365e-06
3.93037e-06
3.51311e-06
3.18931e-06
2.94129e-06
2.75251e-06
2.60919e-06
2.49833e-06
2.41132e-06
2.34232e-06
2.2872e-06
2.24287e-06
2.20576e-06
2.17421e-06
2.14705e-06
2.12357e-06
2.10365e-06
2.08746e-06
2.07635e-06
2.07472e-06
2.08813e-06
2.12066e-06
2.20243e-06
2.37926e-06
2.79419e-06
3.63336e-06
5.51249e-06
8.54952e-06
1.07614e-05
1.15282e-05
1.17358e-05
1.17873e-05
1.17992e-05
1.18018e-05
1.18024e-05
1.18025e-05
1.18025e-05
1.18025e-05
1.16927e-05
1.14327e-05
1.11353e-05
1.08e-05
1.04229e-05
9.99839e-06
9.52043e-06
9.01104e-06
8.48321e-06
7.91061e-06
7.32139e-06
6.71288e-06
6.08813e-06
5.47173e-06
4.89013e-06
4.37058e-06
3.9313e-06
3.57968e-06
3.30867e-06
3.09612e-06
2.92974e-06
2.79649e-06
2.68902e-06
2.60126e-06
2.52799e-06
2.46685e-06
2.41457e-06
2.36956e-06
2.33173e-06
2.30086e-06
2.27981e-06
2.27325e-06
2.29014e-06
2.33183e-06
2.431e-06
2.67404e-06
3.21248e-06
4.28708e-06
6.58014e-06
9.41743e-06
1.10694e-05
1.16045e-05
1.17533e-05
1.1791e-05
1.17999e-05
1.18019e-05
1.18024e-05
1.18025e-05
1.18025e-05
1.18025e-05
1.1722e-05
1.15335e-05
1.13171e-05
1.1072e-05
1.07964e-05
1.04872e-05
1.01406e-05
9.75248e-06
9.32799e-06
8.89276e-06
8.44776e-06
7.95868e-06
7.42838e-06
6.89407e-06
6.33895e-06
5.79877e-06
5.28098e-06
4.80991e-06
4.40364e-06
4.06371e-06
3.78103e-06
3.54584e-06
3.35184e-06
3.18913e-06
3.0512e-06
2.934e-06
2.83399e-06
2.74888e-06
2.67895e-06
2.62373e-06
2.58573e-06
2.57249e-06
2.59339e-06
2.65038e-06
2.79466e-06
3.15822e-06
3.88545e-06
5.36911e-06
7.93929e-06
1.02634e-05
1.1328e-05
1.16711e-05
1.17689e-05
1.17944e-05
1.18007e-05
1.18021e-05
1.18024e-05
1.18025e-05
1.18025e-05
1.18025e-05
1.17434e-05
1.16058e-05
1.14475e-05
1.12671e-05
1.10632e-05
1.08336e-05
1.0577e-05
1.02974e-05
9.98687e-06
9.64117e-06
9.25597e-06
8.8438e-06
8.42954e-06
7.97823e-06
7.50923e-06
7.0223e-06
6.52359e-06
6.02903e-06
5.56436e-06
5.1456e-06
4.77552e-06
4.45369e-06
4.17646e-06
3.93737e-06
3.73134e-06
3.55501e-06
3.40479e-06
3.27794e-06
3.17396e-06
3.09368e-06
3.04171e-06
3.02861e-06
3.06247e-06
3.15712e-06
3.41335e-06
3.97017e-06
5.02836e-06
6.99584e-06
9.3501e-06
1.09118e-05
1.15234e-05
1.17234e-05
1.17817e-05
1.17974e-05
1.18013e-05
1.18022e-05
1.18024e-05
1.18025e-05
1.18025e-05
1.18025e-05
1.17597e-05
1.16603e-05
1.15452e-05
1.14135e-05
1.1265e-05
1.10982e-05
1.09115e-05
1.07028e-05
1.04695e-05
1.02078e-05
9.91343e-06
9.58079e-06
9.22003e-06
8.83129e-06
8.44701e-06
8.02015e-06
7.56064e-06
7.08452e-06
6.61488e-06
6.17094e-06
5.76234e-06
5.39353e-06
5.06611e-06
4.77684e-06
4.52563e-06
4.30782e-06
4.12305e-06
3.9688e-06
3.84698e-06
3.7603e-06
3.71817e-06
3.7339e-06
3.81078e-06
4.01729e-06
4.48932e-06
5.35642e-06
6.86202e-06
8.83724e-06
1.05236e-05
1.1343e-05
1.16564e-05
1.176e-05
1.1791e-05
1.17996e-05
1.18018e-05
1.18023e-05
1.18025e-05
1.18025e-05
1.18025e-05
1.18025e-05
1.1773e-05
1.17041e-05
1.16237e-05
1.15307e-05
1.14241e-05
1.13029e-05
1.1166e-05
1.10118e-05
1.08382e-05
1.06422e-05
1.04226e-05
1.01862e-05
9.91709e-06
9.60839e-06
9.25419e-06
8.85323e-06
8.45563e-06
8.03565e-06
7.59899e-06
7.16959e-06
6.76178e-06
6.38444e-06
6.04124e-06
5.73303e-06
5.46461e-06
5.23714e-06
5.04763e-06
4.89755e-06
4.7922e-06
4.73929e-06
4.75422e-06
4.83723e-06
5.05757e-06
5.50269e-06
6.26064e-06
7.44759e-06
8.95862e-06
1.04019e-05
1.12285e-05
1.15964e-05
1.17357e-05
1.17826e-05
1.17969e-05
1.1801e-05
1.18021e-05
1.18024e-05
1.18025e-05
1.18025e-05
1.18025e-05
1.18025e-05
1.17836e-05
1.17386e-05
1.16847e-05
1.16209e-05
1.15465e-05
1.14609e-05
1.13631e-05
1.12521e-05
1.11284e-05
1.09941e-05
1.08431e-05
1.06716e-05
1.04743e-05
1.02445e-05
9.97499e-06
9.67304e-06
9.32885e-06
8.94618e-06
8.56336e-06
8.18269e-06
7.81405e-06
7.46848e-06
7.15288e-06
6.87131e-06
6.62766e-06
6.42475e-06
6.27264e-06
6.17468e-06
6.13974e-06
6.17063e-06
6.28514e-06
6.54889e-06
6.98587e-06
7.64688e-06
8.54433e-06
9.64482e-06
1.06309e-05
1.12634e-05
1.15854e-05
1.17243e-05
1.17767e-05
1.17946e-05
1.18002e-05
1.18019e-05
1.18023e-05
1.18025e-05
1.18025e-05
1.18025e-05
1.18025e-05
1.18025e-05
1.17922e-05
1.17657e-05
1.17321e-05
1.16908e-05
1.16414e-05
1.15846e-05
1.15202e-05
1.14478e-05
1.13668e-05
1.12761e-05
1.11741e-05
1.10579e-05
1.09238e-05
1.07728e-05
1.05963e-05
1.03869e-05
1.01421e-05
9.86454e-06
9.5613e-06
9.24653e-06
8.93669e-06
8.65953e-06
8.41387e-06
8.20193e-06
8.03001e-06
7.90394e-06
7.83113e-06
7.82193e-06
7.87454e-06
8.02619e-06
8.29088e-06
8.66867e-06
9.20128e-06
9.85442e-06
1.05098e-05
1.10558e-05
1.14274e-05
1.16368e-05
1.17368e-05
1.17788e-05
1.17946e-05
1.18001e-05
1.18018e-05
1.18023e-05
1.18024e-05
1.18025e-05
1.18025e-05
1.18025e-05
1.18025e-05
1.18025e-05
1.17991e-05
1.17873e-05
1.17693e-05
1.17462e-05
1.1718e-05
1.16849e-05
1.16466e-05
1.16031e-05
1.15544e-05
1.15e-05
1.14399e-05
1.13743e-05
1.12999e-05
1.12135e-05
1.11111e-05
1.09892e-05
1.08451e-05
1.06802e-05
1.04995e-05
1.03107e-05
1.01242e-05
9.94996e-06
9.79746e-06
9.6759e-06
9.59387e-06
9.55912e-06
9.56659e-06
9.63189e-06
9.77908e-06
9.99912e-06
1.02822e-05
1.06039e-05
1.09314e-05
1.12273e-05
1.14617e-05
1.16227e-05
1.17178e-05
1.17665e-05
1.17886e-05
1.17975e-05
1.18008e-05
1.1802e-05
1.18023e-05
1.18024e-05
1.18025e-05
1.18025e-05
1.18025e-05
1.18025e-05
1.18025e-05
1.18025e-05
1.18023e-05
1.17997e-05
1.17946e-05
1.17869e-05
1.17767e-05
1.1764e-05
1.17489e-05
1.17316e-05
1.17127e-05
1.16927e-05
1.16705e-05
1.1646e-05
1.16187e-05
1.15881e-05
1.15526e-05
1.15112e-05
1.1463e-05
1.14088e-05
1.13511e-05
1.12929e-05
1.12383e-05
1.11913e-05
1.11557e-05
1.11353e-05
1.11326e-05
1.11502e-05
1.1189e-05
1.12495e-05
1.13279e-05
1.14165e-05
1.15071e-05
1.15911e-05
1.1662e-05
1.17162e-05
1.17537e-05
1.1777e-05
1.179e-05
1.17975e-05
1.1801e-05
1.1802e-05
1.18023e-05
1.18024e-05
1.18025e-05
1.18025e-05
1.18025e-05
1.18025e-05
1.18025e-05
1.18025e-05
1.18025e-05
1.18025e-05
)
;

boundaryField
{
    AXIS
    {
        type            empty;
    }
    OUTLET
    {
        type            calculated;
        value           uniform 1.18025e-05;
    }
    COFLOW
    {
        type            calculated;
        value           uniform 1.18025e-05;
    }
    PILOT
    {
        type            calculated;
        value           uniform 1.56801e-06;
    }
    FUEL
    {
        type            calculated;
        value           uniform 1.04958e-05;
    }
    WALL
    {
        type            calculated;
        value           nonuniform List<scalar> 
50
(
1.18023e-05
1.17997e-05
1.17946e-05
1.17869e-05
1.17767e-05
1.1764e-05
1.17489e-05
1.17316e-05
1.17127e-05
1.16927e-05
1.16705e-05
1.1646e-05
1.16187e-05
1.15881e-05
1.15526e-05
1.15112e-05
1.1463e-05
1.14088e-05
1.13511e-05
1.12929e-05
1.12383e-05
1.11913e-05
1.11557e-05
1.11353e-05
1.11326e-05
1.11502e-05
1.1189e-05
1.12495e-05
1.13279e-05
1.14165e-05
1.15071e-05
1.15911e-05
1.1662e-05
1.17162e-05
1.17537e-05
1.1777e-05
1.179e-05
1.17975e-05
1.1801e-05
1.1802e-05
1.18023e-05
1.18024e-05
1.18025e-05
1.18025e-05
1.18025e-05
1.18025e-05
1.18025e-05
1.18025e-05
1.18025e-05
1.18025e-05
)
;
    }
    front
    {
        type            wedge;
    }
    back
    {
        type            wedge;
    }
}


// ************************************************************************* //
