/*--------------------------------*- C++ -*----------------------------------*\
| =========                 |                                                 |
| \\      /  F ield         | OpenFOAM: The Open Source CFD Toolbox           |
|  \\    /   O peration     | Version:  2.4.x                                 |
|   \\  /    A nd           | Web:      www.OpenFOAM.org                      |
|    \\/     M anipulation  |                                                 |
\*---------------------------------------------------------------------------*/
FoamFile
{
    version     2.0;
    format      ascii;
    class       volScalarField;
    location    "0.06";
    object      thermo:alpha;
}
// * * * * * * * * * * * * * * * * * * * * * * * * * * * * * * * * * * * * * //

dimensions      [1 -1 -1 0 0 0 0];

internalField   nonuniform List<scalar> 
1250
(
2.72204e-05
2.99463e-05
3.26826e-05
3.51688e-05
3.74832e-05
3.96232e-05
4.16192e-05
4.34911e-05
4.53349e-05
4.74235e-05
4.9454e-05
5.13792e-05
5.32906e-05
5.51783e-05
5.701e-05
5.88336e-05
6.05572e-05
6.21469e-05
6.37012e-05
6.5239e-05
6.67571e-05
6.82608e-05
6.97432e-05
7.10462e-05
7.24707e-05
7.39009e-05
7.52953e-05
7.66393e-05
7.79329e-05
7.91921e-05
8.04004e-05
8.15441e-05
8.27793e-05
8.36451e-05
8.44068e-05
8.54891e-05
8.62971e-05
8.40249e-05
7.09327e-05
5.30783e-05
3.57496e-05
2.84076e-05
2.67034e-05
2.63603e-05
2.62917e-05
2.62785e-05
2.62761e-05
2.62757e-05
2.62756e-05
2.62756e-05
2.73914e-05
3.04111e-05
3.32303e-05
3.57535e-05
3.80628e-05
4.01677e-05
4.21096e-05
4.3921e-05
4.59612e-05
4.80388e-05
5.00432e-05
5.1943e-05
5.38364e-05
5.56874e-05
5.75006e-05
5.93043e-05
6.0997e-05
6.25612e-05
6.41001e-05
6.56197e-05
6.71243e-05
6.86129e-05
7.00779e-05
7.13648e-05
7.27055e-05
7.41287e-05
7.55069e-05
7.68428e-05
7.81213e-05
7.93715e-05
8.05676e-05
8.17025e-05
8.29322e-05
8.37896e-05
8.45301e-05
8.55951e-05
8.63332e-05
8.39533e-05
7.08139e-05
5.29817e-05
3.5703e-05
2.83956e-05
2.67011e-05
2.63599e-05
2.62917e-05
2.62785e-05
2.62761e-05
2.62757e-05
2.62756e-05
2.62756e-05
2.7925e-05
3.16924e-05
3.46796e-05
3.72352e-05
3.94597e-05
4.139e-05
4.32911e-05
4.53644e-05
4.74175e-05
4.94351e-05
5.13741e-05
5.32155e-05
5.50364e-05
5.68215e-05
5.85966e-05
6.03438e-05
6.1964e-05
6.34791e-05
6.49774e-05
6.64609e-05
6.79321e-05
6.93829e-05
7.08105e-05
7.20574e-05
7.32547e-05
7.46297e-05
7.59775e-05
7.72937e-05
7.85417e-05
7.97705e-05
8.09407e-05
8.20538e-05
8.32472e-05
8.40987e-05
8.47988e-05
8.58245e-05
8.64141e-05
8.37674e-05
7.05194e-05
5.27234e-05
3.55725e-05
2.83627e-05
2.66951e-05
2.63588e-05
2.62915e-05
2.62785e-05
2.62761e-05
2.62757e-05
2.62756e-05
2.62756e-05
2.95078e-05
3.44852e-05
3.75436e-05
3.97734e-05
4.17588e-05
4.38369e-05
4.58371e-05
4.77744e-05
4.97051e-05
5.16147e-05
5.34223e-05
5.51414e-05
5.6857e-05
5.8561e-05
6.02436e-05
6.1898e-05
6.34137e-05
6.48586e-05
6.62988e-05
6.77265e-05
6.91351e-05
7.05256e-05
7.18863e-05
7.30748e-05
7.42181e-05
7.53659e-05
7.66821e-05
7.7953e-05
7.91692e-05
8.03635e-05
8.14912e-05
8.25703e-05
8.37144e-05
8.45199e-05
8.51923e-05
8.6151e-05
8.65013e-05
8.34562e-05
7.0047e-05
5.22878e-05
3.53518e-05
2.83074e-05
2.66851e-05
2.6357e-05
2.62912e-05
2.62784e-05
2.62761e-05
2.62757e-05
2.62756e-05
2.62756e-05
3.52912e-05
4.07763e-05
4.23761e-05
4.42552e-05
4.59784e-05
4.76181e-05
4.92991e-05
5.10129e-05
5.2753e-05
5.44973e-05
5.61004e-05
5.7675e-05
5.92419e-05
6.07966e-05
6.23539e-05
6.39128e-05
6.53002e-05
6.66654e-05
6.80165e-05
6.93581e-05
7.06794e-05
7.19803e-05
7.32615e-05
7.438e-05
7.54518e-05
7.65002e-05
7.75924e-05
7.88175e-05
7.99854e-05
8.11253e-05
8.22016e-05
8.32422e-05
8.431e-05
8.50617e-05
8.5695e-05
8.65433e-05
8.65679e-05
8.29987e-05
6.94109e-05
5.16741e-05
3.50465e-05
2.82316e-05
2.66714e-05
2.63546e-05
2.62907e-05
2.62784e-05
2.62761e-05
2.62757e-05
2.62756e-05
2.62756e-05
6.05601e-05
5.18589e-05
5.04119e-05
5.07576e-05
5.16605e-05
5.27647e-05
5.40365e-05
5.54353e-05
5.68403e-05
5.82157e-05
5.94506e-05
6.07265e-05
6.20204e-05
6.34432e-05
6.48792e-05
6.63015e-05
6.75547e-05
6.88039e-05
7.00479e-05
7.12841e-05
7.24947e-05
7.36907e-05
7.48706e-05
7.59169e-05
7.69039e-05
7.7882e-05
7.8845e-05
7.98568e-05
8.09639e-05
8.20479e-05
8.30554e-05
8.40343e-05
8.50189e-05
8.57023e-05
8.62859e-05
8.69345e-05
8.65894e-05
8.23882e-05
6.86344e-05
5.08774e-05
3.46665e-05
2.81382e-05
2.66547e-05
2.63516e-05
2.62902e-05
2.62783e-05
2.6276e-05
2.62757e-05
2.62756e-05
2.62756e-05
8.09684e-05
6.37723e-05
5.88383e-05
5.75408e-05
5.74664e-05
5.81014e-05
5.90026e-05
6.00585e-05
6.12107e-05
6.22911e-05
6.33051e-05
6.43669e-05
6.5449e-05
6.65489e-05
6.7681e-05
6.89315e-05
7.00575e-05
7.11807e-05
7.23013e-05
7.34129e-05
7.4502e-05
7.55838e-05
7.66609e-05
7.76299e-05
7.85269e-05
7.94158e-05
8.0298e-05
8.11666e-05
8.20773e-05
8.3078e-05
8.4011e-05
8.49252e-05
8.58056e-05
8.64062e-05
8.69112e-05
8.72984e-05
8.64432e-05
8.15979e-05
6.77134e-05
4.99227e-05
3.42251e-05
2.80308e-05
2.66354e-05
2.63482e-05
2.62896e-05
2.62782e-05
2.6276e-05
2.62756e-05
2.62756e-05
2.62756e-05
8.9866e-05
7.02876e-05
6.42776e-05
6.27259e-05
6.23533e-05
6.2859e-05
6.36293e-05
6.4526e-05
6.5501e-05
6.63447e-05
6.71728e-05
6.80403e-05
6.89373e-05
6.98446e-05
7.076e-05
7.16397e-05
7.26387e-05
7.3634e-05
7.46294e-05
7.56207e-05
7.66019e-05
7.75786e-05
7.8547e-05
7.94457e-05
8.02514e-05
8.1047e-05
8.1836e-05
8.26096e-05
8.3374e-05
8.41878e-05
8.5034e-05
8.58654e-05
8.66314e-05
8.71388e-05
8.75284e-05
8.7589e-05
8.62735e-05
8.0628e-05
6.66476e-05
4.88329e-05
3.37387e-05
2.79139e-05
2.66145e-05
2.63444e-05
2.6289e-05
2.62781e-05
2.6276e-05
2.62756e-05
2.62756e-05
2.62756e-05
8.91337e-05
7.03314e-05
6.53137e-05
6.50523e-05
6.56547e-05
6.63557e-05
6.73366e-05
6.82951e-05
6.92295e-05
6.99773e-05
7.07181e-05
7.14712e-05
7.22361e-05
7.3004e-05
7.37827e-05
7.44934e-05
7.52396e-05
7.61179e-05
7.70021e-05
7.78811e-05
7.87494e-05
7.96083e-05
8.04631e-05
8.12767e-05
8.19867e-05
8.26879e-05
8.33808e-05
8.40567e-05
8.47278e-05
8.53881e-05
8.60704e-05
8.68094e-05
8.74458e-05
8.78467e-05
8.80829e-05
8.77864e-05
8.59612e-05
7.94518e-05
6.54691e-05
4.76114e-05
3.32265e-05
2.77923e-05
2.65927e-05
2.63406e-05
2.62883e-05
2.6278e-05
2.6276e-05
2.62756e-05
2.62756e-05
2.62756e-05
7.48911e-05
6.11044e-05
6.0097e-05
6.35294e-05
6.60832e-05
6.80221e-05
6.95401e-05
7.08845e-05
7.20713e-05
7.31377e-05
7.40702e-05
7.49181e-05
7.57085e-05
7.64393e-05
7.71201e-05
7.75542e-05
7.80255e-05
7.87158e-05
7.94473e-05
8.01872e-05
8.0914e-05
8.16386e-05
8.23411e-05
8.30302e-05
8.36479e-05
8.42536e-05
8.48555e-05
8.5435e-05
8.60106e-05
8.6564e-05
8.70902e-05
8.76941e-05
8.81909e-05
8.84772e-05
8.85469e-05
8.78669e-05
8.54592e-05
7.81045e-05
6.42118e-05
4.6312e-05
3.26599e-05
2.76709e-05
2.65709e-05
2.63367e-05
2.62876e-05
2.62779e-05
2.6276e-05
2.62756e-05
2.62756e-05
2.62756e-05
3.73456e-05
4.47366e-05
5.0182e-05
5.71808e-05
6.29183e-05
6.68076e-05
6.96164e-05
7.1788e-05
7.33101e-05
7.46534e-05
7.59942e-05
7.71678e-05
7.81653e-05
7.90711e-05
7.9832e-05
8.02421e-05
8.06434e-05
8.1218e-05
8.17983e-05
8.23805e-05
8.29545e-05
8.35314e-05
8.40918e-05
8.46524e-05
8.51811e-05
8.5699e-05
8.61985e-05
8.66875e-05
8.71642e-05
8.76196e-05
8.80477e-05
8.84758e-05
8.8828e-05
8.8985e-05
8.88427e-05
8.77603e-05
8.47513e-05
7.6605e-05
6.28108e-05
4.49144e-05
3.20509e-05
2.75503e-05
2.65492e-05
2.63328e-05
2.6287e-05
2.62777e-05
2.6276e-05
2.62756e-05
2.62756e-05
2.62756e-05
2.95946e-05
3.51492e-05
4.01629e-05
4.71183e-05
5.48326e-05
6.14299e-05
6.6482e-05
6.99095e-05
7.25764e-05
7.465e-05
7.62189e-05
7.75853e-05
7.87335e-05
7.97364e-05
8.05635e-05
8.14571e-05
8.22802e-05
8.29585e-05
8.3556e-05
8.41086e-05
8.46351e-05
8.51386e-05
8.56199e-05
8.60916e-05
8.65351e-05
8.69632e-05
8.73703e-05
8.77627e-05
8.81443e-05
8.84901e-05
8.88183e-05
8.90941e-05
8.92928e-05
8.92919e-05
8.88922e-05
8.73057e-05
8.36786e-05
7.481e-05
6.10954e-05
4.33288e-05
3.14075e-05
2.74234e-05
2.6526e-05
2.63285e-05
2.62862e-05
2.62776e-05
2.6276e-05
2.62756e-05
2.62756e-05
2.62756e-05
2.76126e-05
3.07554e-05
3.39506e-05
3.83467e-05
4.43311e-05
5.12991e-05
5.81814e-05
6.39338e-05
6.83508e-05
7.16561e-05
7.42354e-05
7.64004e-05
7.81289e-05
7.95502e-05
8.07611e-05
8.18108e-05
8.27347e-05
8.35508e-05
8.42805e-05
8.49406e-05
8.55398e-05
8.60863e-05
8.65935e-05
8.70641e-05
8.74784e-05
8.78323e-05
8.81628e-05
8.84688e-05
8.87548e-05
8.90087e-05
8.92352e-05
8.93729e-05
8.94345e-05
8.92517e-05
8.85343e-05
8.64411e-05
8.2069e-05
7.26815e-05
5.88707e-05
4.14626e-05
3.07043e-05
2.7284e-05
2.64999e-05
2.63237e-05
2.62854e-05
2.62775e-05
2.62759e-05
2.62756e-05
2.62756e-05
2.62756e-05
2.69733e-05
2.87496e-05
3.08199e-05
3.33295e-05
3.67565e-05
4.12194e-05
4.67289e-05
5.28624e-05
5.8801e-05
6.41355e-05
6.84821e-05
7.19938e-05
7.47952e-05
7.70579e-05
7.89705e-05
8.05692e-05
8.191e-05
8.30574e-05
8.40307e-05
8.48618e-05
8.5569e-05
8.61831e-05
8.67235e-05
8.71969e-05
8.75967e-05
8.79161e-05
8.81983e-05
8.84502e-05
8.86742e-05
8.88579e-05
8.90042e-05
8.90843e-05
8.90065e-05
8.86221e-05
8.75767e-05
8.49914e-05
7.96851e-05
6.99793e-05
5.59277e-05
3.92752e-05
2.99457e-05
2.71315e-05
2.64704e-05
2.6318e-05
2.62844e-05
2.62773e-05
2.62759e-05
2.62756e-05
2.62756e-05
2.62756e-05
2.67074e-05
2.78057e-05
2.91163e-05
3.07417e-05
3.27048e-05
3.51968e-05
3.83218e-05
4.22294e-05
4.69068e-05
5.21052e-05
5.74036e-05
6.22816e-05
6.65223e-05
7.02113e-05
7.32998e-05
7.58823e-05
7.80381e-05
7.98259e-05
8.13538e-05
8.2624e-05
8.3648e-05
8.44992e-05
8.52123e-05
8.57995e-05
8.62638e-05
8.66361e-05
8.69567e-05
8.72323e-05
8.7511e-05
8.77359e-05
8.78731e-05
8.78713e-05
8.76708e-05
8.70813e-05
8.56534e-05
8.26922e-05
7.65577e-05
6.64754e-05
5.20653e-05
3.67985e-05
2.91621e-05
2.69697e-05
2.64378e-05
2.63116e-05
2.62832e-05
2.62771e-05
2.62759e-05
2.62756e-05
2.62756e-05
2.62756e-05
2.65696e-05
2.73008e-05
2.81746e-05
2.92215e-05
3.05009e-05
3.20682e-05
3.38453e-05
3.60942e-05
3.8767e-05
4.19897e-05
4.57015e-05
4.98996e-05
5.44181e-05
5.8934e-05
6.31757e-05
6.69832e-05
7.02736e-05
7.30365e-05
7.5306e-05
7.7176e-05
7.87195e-05
7.99942e-05
8.10468e-05
8.19159e-05
8.26605e-05
8.33064e-05
8.38712e-05
8.43664e-05
8.47898e-05
8.51336e-05
8.53641e-05
8.53807e-05
8.50603e-05
8.43257e-05
8.25927e-05
7.91731e-05
7.2308e-05
6.18533e-05
4.72041e-05
3.42112e-05
2.84095e-05
2.68084e-05
2.64033e-05
2.63046e-05
2.62818e-05
2.62769e-05
2.62758e-05
2.62756e-05
2.62756e-05
2.62756e-05
2.64862e-05
2.69974e-05
2.7605e-05
2.83211e-05
2.91691e-05
3.01824e-05
3.14056e-05
3.28168e-05
3.44122e-05
3.63198e-05
3.85079e-05
4.10554e-05
4.40429e-05
4.74515e-05
5.12023e-05
5.51185e-05
5.89679e-05
6.25048e-05
6.5579e-05
6.82441e-05
7.0508e-05
7.2449e-05
7.41058e-05
7.55244e-05
7.67572e-05
7.78209e-05
7.87568e-05
7.95822e-05
8.02881e-05
8.08705e-05
8.12642e-05
8.13706e-05
8.10108e-05
8.01775e-05
7.83196e-05
7.42029e-05
6.66523e-05
5.57723e-05
4.166e-05
3.16886e-05
2.77457e-05
2.66582e-05
2.63698e-05
2.62975e-05
2.62804e-05
2.62766e-05
2.62758e-05
2.62756e-05
2.62756e-05
2.62756e-05
2.64297e-05
2.67972e-05
2.72309e-05
2.7738e-05
2.83299e-05
2.90226e-05
2.98377e-05
3.0803e-05
3.19285e-05
3.31659e-05
3.45293e-05
3.61574e-05
3.80989e-05
4.02722e-05
4.28049e-05
4.55926e-05
4.86323e-05
5.17843e-05
5.48679e-05
5.77667e-05
6.04449e-05
6.28946e-05
6.50931e-05
6.70776e-05
6.88703e-05
7.04808e-05
7.19235e-05
7.32045e-05
7.42936e-05
7.5176e-05
7.57904e-05
7.5993e-05
7.56213e-05
7.46668e-05
7.24054e-05
6.73672e-05
5.9358e-05
4.8066e-05
3.62267e-05
2.95474e-05
2.72102e-05
2.65283e-05
2.63397e-05
2.62909e-05
2.62791e-05
2.62763e-05
2.62757e-05
2.62756e-05
2.62756e-05
2.62756e-05
2.63886e-05
2.66552e-05
2.69684e-05
2.73335e-05
2.77574e-05
2.82496e-05
2.88195e-05
2.94651e-05
3.0215e-05
3.10929e-05
3.21297e-05
3.33142e-05
3.45917e-05
3.60945e-05
3.77943e-05
3.97323e-05
4.19308e-05
4.43635e-05
4.69229e-05
4.95016e-05
5.20372e-05
5.44746e-05
5.67779e-05
5.89405e-05
6.09547e-05
6.28051e-05
6.4485e-05
6.59856e-05
6.72736e-05
6.83046e-05
6.89867e-05
6.91513e-05
6.86839e-05
6.74384e-05
6.43241e-05
5.85782e-05
5.02494e-05
3.98375e-05
3.18718e-05
2.80818e-05
2.68181e-05
2.64272e-05
2.63153e-05
2.62854e-05
2.62779e-05
2.62761e-05
2.62757e-05
2.62756e-05
2.62756e-05
2.62756e-05
2.63573e-05
2.65491e-05
2.67745e-05
2.70368e-05
2.73381e-05
2.76843e-05
2.80815e-05
2.85383e-05
2.90657e-05
2.96792e-05
3.03993e-05
3.12535e-05
3.2232e-05
3.33529e-05
3.45365e-05
3.59494e-05
3.76002e-05
3.9474e-05
4.15112e-05
4.3638e-05
4.57984e-05
4.79429e-05
5.0027e-05
5.20305e-05
5.39119e-05
5.56634e-05
5.72474e-05
5.86458e-05
5.9803e-05
6.06559e-05
6.10771e-05
6.09113e-05
6.01383e-05
5.81741e-05
5.41694e-05
4.81529e-05
4.04088e-05
3.33344e-05
2.89428e-05
2.71796e-05
2.6557e-05
2.63569e-05
2.62975e-05
2.62811e-05
2.62769e-05
2.62759e-05
2.62756e-05
2.62756e-05
2.62756e-05
2.62756e-05
2.63318e-05
2.64643e-05
2.66205e-05
2.68034e-05
2.70157e-05
2.72609e-05
2.7543e-05
2.78672e-05
2.8241e-05
2.86745e-05
2.91749e-05
2.97319e-05
3.03907e-05
3.11808e-05
3.21363e-05
3.3287e-05
3.45085e-05
3.58948e-05
3.74549e-05
3.91234e-05
4.08496e-05
4.25867e-05
4.43e-05
4.59616e-05
4.75143e-05
4.89157e-05
5.01496e-05
5.1173e-05
5.19171e-05
5.22985e-05
5.2188e-05
5.1591e-05
5.00759e-05
4.72809e-05
4.31877e-05
3.80283e-05
3.29775e-05
2.9223e-05
2.7414e-05
2.66741e-05
2.64035e-05
2.63136e-05
2.62861e-05
2.62783e-05
2.62763e-05
2.62757e-05
2.62756e-05
2.62756e-05
2.62756e-05
2.62756e-05
2.63115e-05
2.63979e-05
2.6502e-05
2.6626e-05
2.67721e-05
2.69423e-05
2.71389e-05
2.73654e-05
2.76218e-05
2.79055e-05
2.82308e-05
2.86088e-05
2.90555e-05
2.95924e-05
3.02463e-05
3.10111e-05
3.19284e-05
3.30104e-05
3.41657e-05
3.5394e-05
3.66676e-05
3.79448e-05
3.91898e-05
4.03709e-05
4.14513e-05
4.23959e-05
4.3132e-05
4.3619e-05
4.37953e-05
4.36389e-05
4.30696e-05
4.18134e-05
3.98852e-05
3.72795e-05
3.42295e-05
3.10859e-05
2.87001e-05
2.73421e-05
2.66956e-05
2.64255e-05
2.63247e-05
2.62905e-05
2.62798e-05
2.62767e-05
2.62759e-05
2.62756e-05
2.62756e-05
2.62756e-05
2.62756e-05
2.62756e-05
2.62952e-05
2.6346e-05
2.64105e-05
2.64902e-05
2.65861e-05
2.66974e-05
2.68243e-05
2.69684e-05
2.71314e-05
2.7316e-05
2.75266e-05
2.77699e-05
2.80557e-05
2.8384e-05
2.87768e-05
2.9256e-05
2.98358e-05
3.05195e-05
3.13011e-05
3.21534e-05
3.30365e-05
3.38671e-05
3.46378e-05
3.53304e-05
3.59123e-05
3.63513e-05
3.66101e-05
3.66437e-05
3.64569e-05
3.59284e-05
3.50406e-05
3.3844e-05
3.2284e-05
3.0548e-05
2.89742e-05
2.77745e-05
2.70092e-05
2.65951e-05
2.64014e-05
2.63208e-05
2.62906e-05
2.62802e-05
2.62769e-05
2.62759e-05
2.62757e-05
2.62756e-05
2.62756e-05
2.62756e-05
2.62756e-05
2.62756e-05
2.62821e-05
2.63047e-05
2.6339e-05
2.63834e-05
2.64376e-05
2.65016e-05
2.6576e-05
2.66609e-05
2.67566e-05
2.68644e-05
2.69842e-05
2.71161e-05
2.7267e-05
2.74443e-05
2.7657e-05
2.79145e-05
2.82245e-05
2.85874e-05
2.89952e-05
2.94332e-05
2.98781e-05
3.03054e-05
3.0689e-05
3.10016e-05
3.12161e-05
3.13082e-05
3.1289e-05
3.1118e-05
3.07385e-05
3.01866e-05
2.95031e-05
2.87604e-05
2.80395e-05
2.74163e-05
2.69407e-05
2.66226e-05
2.64381e-05
2.63443e-05
2.63022e-05
2.6285e-05
2.62787e-05
2.62765e-05
2.62758e-05
2.62756e-05
2.62756e-05
2.62756e-05
2.62756e-05
2.62756e-05
2.62756e-05
2.62756e-05
2.62758e-05
2.62809e-05
2.62907e-05
2.63054e-05
2.63248e-05
2.63491e-05
2.63781e-05
2.64114e-05
2.64476e-05
2.64862e-05
2.65293e-05
2.65769e-05
2.66299e-05
2.66899e-05
2.67595e-05
2.68414e-05
2.69371e-05
2.70455e-05
2.71619e-05
2.72801e-05
2.73922e-05
2.74892e-05
2.75632e-05
2.76058e-05
2.76116e-05
2.7575e-05
2.74945e-05
2.73697e-05
2.72097e-05
2.70307e-05
2.685e-05
2.66843e-05
2.6546e-05
2.64411e-05
2.63689e-05
2.63242e-05
2.62994e-05
2.62851e-05
2.62784e-05
2.62765e-05
2.62759e-05
2.62757e-05
2.62756e-05
2.62756e-05
2.62756e-05
2.62756e-05
2.62756e-05
2.62756e-05
2.62756e-05
2.62756e-05
)
;

boundaryField
{
    AXIS
    {
        type            empty;
    }
    OUTLET
    {
        type            calculated;
        value           uniform 2.62756e-05;
    }
    COFLOW
    {
        type            calculated;
        value           uniform 2.62756e-05;
    }
    PILOT
    {
        type            calculated;
        value           uniform 0.000100126;
    }
    FUEL
    {
        type            calculated;
        value           uniform 2.61542e-05;
    }
    WALL
    {
        type            calculated;
        value           nonuniform List<scalar> 
50
(
2.62758e-05
2.62809e-05
2.62907e-05
2.63054e-05
2.63248e-05
2.63491e-05
2.63781e-05
2.64114e-05
2.64476e-05
2.64862e-05
2.65293e-05
2.65769e-05
2.66299e-05
2.66899e-05
2.67595e-05
2.68414e-05
2.69371e-05
2.70455e-05
2.71619e-05
2.72801e-05
2.73922e-05
2.74892e-05
2.75632e-05
2.76058e-05
2.76116e-05
2.7575e-05
2.74945e-05
2.73697e-05
2.72097e-05
2.70307e-05
2.685e-05
2.66843e-05
2.6546e-05
2.64411e-05
2.63689e-05
2.63242e-05
2.62994e-05
2.62851e-05
2.62784e-05
2.62765e-05
2.62759e-05
2.62757e-05
2.62756e-05
2.62756e-05
2.62756e-05
2.62756e-05
2.62756e-05
2.62756e-05
2.62756e-05
2.62756e-05
)
;
    }
    front
    {
        type            wedge;
    }
    back
    {
        type            wedge;
    }
}


// ************************************************************************* //
