/*--------------------------------*- C++ -*----------------------------------*\
| =========                 |                                                 |
| \\      /  F ield         | OpenFOAM: The Open Source CFD Toolbox           |
|  \\    /   O peration     | Version:  2.4.x                                 |
|   \\  /    A nd           | Web:      www.OpenFOAM.org                      |
|    \\/     M anipulation  |                                                 |
\*---------------------------------------------------------------------------*/
FoamFile
{
    version     2.0;
    format      ascii;
    class       volScalarField;
    location    "0.06";
    object      thermo:mu;
}
// * * * * * * * * * * * * * * * * * * * * * * * * * * * * * * * * * * * * * //

dimensions      [1 -1 -1 0 0 0 0];

internalField   nonuniform List<scalar> 
1250
(
1.88881e-05
2.08065e-05
2.27413e-05
2.45069e-05
2.61567e-05
2.76872e-05
2.91185e-05
3.04639e-05
3.17916e-05
3.32981e-05
3.47646e-05
3.61555e-05
3.75372e-05
3.89022e-05
4.02267e-05
4.15453e-05
4.27908e-05
4.39386e-05
4.50601e-05
4.61663e-05
4.72571e-05
4.83365e-05
4.93994e-05
5.03319e-05
5.13498e-05
5.23702e-05
5.33637e-05
5.43199e-05
5.5239e-05
5.61324e-05
5.69886e-05
5.77982e-05
5.86712e-05
5.92822e-05
5.98205e-05
6.0583e-05
6.1119e-05
5.93275e-05
4.97724e-05
3.69313e-05
2.47235e-05
1.96183e-05
1.84367e-05
1.81989e-05
1.81514e-05
1.81422e-05
1.81406e-05
1.81403e-05
1.81402e-05
1.81402e-05
1.90082e-05
2.11345e-05
2.31296e-05
2.49231e-05
2.65707e-05
2.80772e-05
2.94705e-05
3.0773e-05
3.22427e-05
3.3742e-05
3.519e-05
3.65628e-05
3.79316e-05
3.92701e-05
4.05811e-05
4.18852e-05
4.31083e-05
4.42374e-05
4.53471e-05
4.64398e-05
4.75206e-05
4.85888e-05
4.9639e-05
5.05598e-05
5.15175e-05
5.25328e-05
5.35145e-05
5.44647e-05
5.53729e-05
5.62598e-05
5.71072e-05
5.79104e-05
5.87795e-05
5.93846e-05
5.99076e-05
6.06575e-05
6.11424e-05
5.92739e-05
4.96864e-05
3.68624e-05
2.4691e-05
1.961e-05
1.84351e-05
1.81986e-05
1.81514e-05
1.81422e-05
1.81406e-05
1.81403e-05
1.81402e-05
1.81402e-05
1.93831e-05
2.20402e-05
2.4159e-05
2.59796e-05
2.75699e-05
2.89534e-05
3.03192e-05
3.18117e-05
3.32924e-05
3.47496e-05
3.6151e-05
3.7482e-05
3.87986e-05
4.00894e-05
4.13728e-05
4.26357e-05
4.3806e-05
4.48992e-05
4.59776e-05
4.70436e-05
4.80999e-05
4.91404e-05
5.01632e-05
5.10548e-05
5.19098e-05
5.28902e-05
5.38497e-05
5.47855e-05
5.56717e-05
5.6543e-05
5.73717e-05
5.81592e-05
5.90024e-05
5.96033e-05
6.00972e-05
6.08185e-05
6.11946e-05
5.91353e-05
4.94732e-05
3.66783e-05
2.46e-05
1.95872e-05
1.84309e-05
1.81979e-05
1.81512e-05
1.81422e-05
1.81405e-05
1.81403e-05
1.81402e-05
1.81402e-05
2.04973e-05
2.40211e-05
2.62e-05
2.77942e-05
2.92174e-05
3.07105e-05
3.21506e-05
3.35479e-05
3.49424e-05
3.63232e-05
3.76302e-05
3.88732e-05
4.01137e-05
4.13457e-05
4.25619e-05
4.37572e-05
4.48513e-05
4.58913e-05
4.69263e-05
4.79514e-05
4.89617e-05
4.99582e-05
5.09323e-05
5.17813e-05
5.25971e-05
5.3415e-05
5.43514e-05
5.52543e-05
5.61172e-05
5.69636e-05
5.77617e-05
5.85247e-05
5.93326e-05
5.99007e-05
6.03746e-05
6.10473e-05
6.12476e-05
5.89038e-05
4.91313e-05
3.63679e-05
2.44461e-05
1.95488e-05
1.8424e-05
1.81966e-05
1.8151e-05
1.81422e-05
1.81405e-05
1.81403e-05
1.81402e-05
1.81402e-05
2.45947e-05
2.85154e-05
2.96609e-05
3.10098e-05
3.22494e-05
3.34309e-05
3.46443e-05
3.58829e-05
3.71418e-05
3.84046e-05
3.9564e-05
4.07025e-05
4.18351e-05
4.29582e-05
4.40833e-05
4.52093e-05
4.62071e-05
4.71879e-05
4.81578e-05
4.91199e-05
5.00667e-05
5.09978e-05
5.1914e-05
5.27121e-05
5.34759e-05
5.42222e-05
5.49988e-05
5.58684e-05
5.66963e-05
5.75034e-05
5.82645e-05
5.89997e-05
5.97532e-05
6.02829e-05
6.07286e-05
6.13212e-05
6.1282e-05
5.85647e-05
4.86711e-05
3.5931e-05
2.42333e-05
1.94963e-05
1.84145e-05
1.81949e-05
1.81507e-05
1.81421e-05
1.81405e-05
1.81403e-05
1.81402e-05
1.81402e-05
4.27923e-05
3.64942e-05
3.54408e-05
3.56875e-05
3.63389e-05
3.71374e-05
3.80582e-05
3.90716e-05
4.00893e-05
4.1085e-05
4.19774e-05
4.29e-05
4.38358e-05
4.48641e-05
4.58995e-05
4.69234e-05
4.78234e-05
4.87197e-05
4.96114e-05
5.04968e-05
5.1363e-05
5.2218e-05
5.30606e-05
5.38063e-05
5.45086e-05
5.5204e-05
5.58878e-05
5.66055e-05
5.73895e-05
5.81561e-05
5.88678e-05
5.95589e-05
6.02529e-05
6.07339e-05
6.11436e-05
6.15922e-05
6.12802e-05
5.81135e-05
4.81094e-05
3.53645e-05
2.39686e-05
1.94315e-05
1.84029e-05
1.81929e-05
1.81503e-05
1.81421e-05
1.81405e-05
1.81403e-05
1.81402e-05
1.81402e-05
5.73207e-05
4.5043e-05
4.14857e-05
4.05536e-05
4.05048e-05
4.09691e-05
4.16256e-05
4.23936e-05
4.32306e-05
4.40146e-05
4.47492e-05
4.55169e-05
4.62977e-05
4.70907e-05
4.79063e-05
4.88053e-05
4.96128e-05
5.04176e-05
5.12198e-05
5.20149e-05
5.27929e-05
5.35651e-05
5.43333e-05
5.50231e-05
5.56603e-05
5.62912e-05
5.69168e-05
5.75322e-05
5.81766e-05
5.88835e-05
5.95417e-05
6.01863e-05
6.08061e-05
6.12281e-05
6.15812e-05
6.1841e-05
6.11564e-05
5.75314e-05
4.74439e-05
3.46864e-05
2.36611e-05
1.9357e-05
1.83896e-05
1.81905e-05
1.81499e-05
1.8142e-05
1.81405e-05
1.81402e-05
1.81402e-05
1.81402e-05
6.35041e-05
4.95927e-05
4.53169e-05
4.42276e-05
4.39791e-05
4.43602e-05
4.49294e-05
4.55865e-05
4.62973e-05
4.69108e-05
4.75115e-05
4.81394e-05
4.87876e-05
4.94424e-05
5.01021e-05
5.07346e-05
5.14503e-05
5.21628e-05
5.28747e-05
5.3583e-05
5.42835e-05
5.49801e-05
5.56701e-05
5.63091e-05
5.68806e-05
5.74444e-05
5.8003e-05
5.85502e-05
5.90905e-05
5.96648e-05
6.02611e-05
6.08466e-05
6.13849e-05
6.17404e-05
6.20104e-05
6.20341e-05
6.1013e-05
5.6819e-05
4.66746e-05
3.39136e-05
2.33225e-05
1.92759e-05
1.83751e-05
1.81879e-05
1.81495e-05
1.81419e-05
1.81405e-05
1.81402e-05
1.81402e-05
1.81402e-05
6.2914e-05
4.94513e-05
4.59236e-05
4.57942e-05
4.62705e-05
4.68062e-05
4.75368e-05
4.82457e-05
4.89333e-05
4.94821e-05
5.00236e-05
5.0572e-05
5.11272e-05
5.16833e-05
5.2246e-05
5.27578e-05
5.32935e-05
5.39224e-05
5.45547e-05
5.51826e-05
5.58022e-05
5.64144e-05
5.7023e-05
5.76012e-05
5.81041e-05
5.86003e-05
5.90902e-05
5.95675e-05
6.00411e-05
6.05066e-05
6.09869e-05
6.15064e-05
6.19527e-05
6.22324e-05
6.2392e-05
6.21566e-05
6.07651e-05
5.59577e-05
4.5825e-05
3.30489e-05
2.2966e-05
1.91916e-05
1.836e-05
1.81852e-05
1.8149e-05
1.81419e-05
1.81405e-05
1.81402e-05
1.81402e-05
1.81402e-05
5.25861e-05
4.27072e-05
4.20435e-05
4.45762e-05
4.64682e-05
4.79082e-05
4.90367e-05
5.00329e-05
5.09096e-05
5.16952e-05
5.23815e-05
5.30039e-05
5.35832e-05
5.41177e-05
5.46133e-05
5.49265e-05
5.52653e-05
5.57593e-05
5.62823e-05
5.68107e-05
5.7329e-05
5.78447e-05
5.83437e-05
5.88324e-05
5.92697e-05
5.96979e-05
6.0123e-05
6.05317e-05
6.09374e-05
6.13268e-05
6.16968e-05
6.21207e-05
6.24678e-05
6.26659e-05
6.27054e-05
6.21914e-05
6.038e-05
5.49736e-05
4.49194e-05
3.21307e-05
2.25718e-05
1.91074e-05
1.83449e-05
1.81825e-05
1.81485e-05
1.81418e-05
1.81405e-05
1.81402e-05
1.81402e-05
1.81402e-05
2.5837e-05
3.10232e-05
3.48916e-05
3.99202e-05
4.40849e-05
4.69283e-05
4.899e-05
5.05884e-05
5.17134e-05
5.27037e-05
5.36863e-05
5.45472e-05
5.52793e-05
5.5943e-05
5.64999e-05
5.6802e-05
5.70957e-05
5.75104e-05
5.79275e-05
5.83448e-05
5.87551e-05
5.91664e-05
5.95652e-05
5.99634e-05
6.03379e-05
6.0704e-05
6.10566e-05
6.14013e-05
6.17368e-05
6.20569e-05
6.23575e-05
6.26572e-05
6.29019e-05
6.30079e-05
6.28945e-05
6.2088e-05
5.98456e-05
5.38806e-05
4.39103e-05
3.1145e-05
2.21484e-05
1.90238e-05
1.83298e-05
1.81798e-05
1.81481e-05
1.81417e-05
1.81405e-05
1.81402e-05
1.81402e-05
1.81402e-05
2.0442e-05
2.43056e-05
2.78111e-05
3.27128e-05
3.82141e-05
4.29711e-05
4.66306e-05
4.91345e-05
5.10854e-05
5.26062e-05
5.37599e-05
5.47638e-05
5.56073e-05
5.63431e-05
5.695e-05
5.76015e-05
5.82013e-05
5.86958e-05
5.91304e-05
5.95308e-05
5.99108e-05
6.02727e-05
6.06175e-05
6.09543e-05
6.12697e-05
6.15729e-05
6.18606e-05
6.21373e-05
6.24059e-05
6.26486e-05
6.28786e-05
6.30707e-05
6.32071e-05
6.32003e-05
6.29013e-05
6.173e-05
5.90466e-05
5.2575e-05
4.26755e-05
3.0029e-05
2.17011e-05
1.89358e-05
1.83138e-05
1.81769e-05
1.81476e-05
1.81416e-05
1.81405e-05
1.81402e-05
1.81402e-05
1.81402e-05
1.9067e-05
2.12483e-05
2.34709e-05
2.6539e-05
3.074e-05
3.56771e-05
4.06057e-05
4.47547e-05
4.7949e-05
5.03533e-05
5.2235e-05
5.38159e-05
5.50805e-05
5.61217e-05
5.70094e-05
5.77786e-05
5.84551e-05
5.90518e-05
5.95843e-05
6.0065e-05
6.05001e-05
6.08958e-05
6.12618e-05
6.16002e-05
6.18969e-05
6.21491e-05
6.23838e-05
6.26003e-05
6.28021e-05
6.29807e-05
6.31393e-05
6.3234e-05
6.32738e-05
6.31368e-05
6.26088e-05
6.10727e-05
5.78589e-05
5.10291e-05
4.10763e-05
2.87184e-05
2.12125e-05
1.88391e-05
1.82957e-05
1.81735e-05
1.8147e-05
1.81415e-05
1.81404e-05
1.81402e-05
1.81402e-05
1.81402e-05
1.86238e-05
1.98557e-05
2.12931e-05
2.30383e-05
2.54272e-05
2.85503e-05
3.24297e-05
3.67853e-05
4.10397e-05
4.488e-05
4.80141e-05
5.05552e-05
5.25889e-05
5.42359e-05
5.56303e-05
5.67974e-05
5.77773e-05
5.86161e-05
5.93275e-05
5.99348e-05
6.04507e-05
6.0898e-05
6.12907e-05
6.16337e-05
6.19225e-05
6.21526e-05
6.2355e-05
6.25351e-05
6.26947e-05
6.2825e-05
6.29282e-05
6.29831e-05
6.29244e-05
6.26431e-05
6.18792e-05
5.99904e-05
5.6112e-05
4.90725e-05
3.89662e-05
2.71859e-05
2.06857e-05
1.87334e-05
1.82752e-05
1.81696e-05
1.81463e-05
1.81414e-05
1.81404e-05
1.81402e-05
1.81402e-05
1.81402e-05
1.84394e-05
1.9201e-05
2.01102e-05
2.12388e-05
2.26035e-05
2.43388e-05
2.65203e-05
2.92582e-05
3.2553e-05
3.62406e-05
4.0027e-05
4.3532e-05
4.6583e-05
4.92423e-05
5.14749e-05
5.33459e-05
5.49107e-05
5.62104e-05
5.73224e-05
5.82475e-05
5.89937e-05
5.9614e-05
6.01334e-05
6.05608e-05
6.08988e-05
6.11695e-05
6.14022e-05
6.16019e-05
6.18032e-05
6.19653e-05
6.20643e-05
6.20627e-05
6.19173e-05
6.14893e-05
6.04514e-05
5.8294e-05
5.38312e-05
4.65442e-05
3.6209e-05
2.54552e-05
2.01418e-05
1.86212e-05
1.82526e-05
1.81651e-05
1.81455e-05
1.81413e-05
1.81404e-05
1.81402e-05
1.81402e-05
1.81402e-05
1.8344e-05
1.88508e-05
1.94568e-05
2.01832e-05
2.10715e-05
2.21607e-05
2.33971e-05
2.49643e-05
2.6831e-05
2.90889e-05
3.17005e-05
3.46703e-05
3.78868e-05
4.112e-05
4.41671e-05
4.69029e-05
4.92719e-05
5.12656e-05
5.29062e-05
5.42599e-05
5.53786e-05
5.63033e-05
5.70677e-05
5.76994e-05
5.82407e-05
5.87103e-05
5.9121e-05
5.94812e-05
5.97893e-05
6.00399e-05
6.02085e-05
6.02222e-05
5.99915e-05
5.94599e-05
5.8204e-05
5.57208e-05
5.07484e-05
4.32188e-05
3.27607e-05
2.36514e-05
1.96196e-05
1.85095e-05
1.82287e-05
1.81603e-05
1.81445e-05
1.81411e-05
1.81404e-05
1.81402e-05
1.81402e-05
1.81402e-05
1.82861e-05
1.86405e-05
1.90617e-05
1.95584e-05
2.01467e-05
2.08502e-05
2.17e-05
2.26811e-05
2.37917e-05
2.51213e-05
2.66494e-05
2.8433e-05
3.05312e-05
3.29353e-05
3.55939e-05
3.83847e-05
4.11407e-05
4.36801e-05
4.58875e-05
4.78028e-05
4.94325e-05
5.08318e-05
5.20278e-05
5.3053e-05
5.39447e-05
5.47147e-05
5.53928e-05
5.59913e-05
5.65037e-05
5.69269e-05
5.72139e-05
5.7293e-05
5.70344e-05
5.64328e-05
5.50894e-05
5.21116e-05
4.66675e-05
3.88544e-05
2.88569e-05
2.18965e-05
1.91592e-05
1.84054e-05
1.82055e-05
1.81554e-05
1.81436e-05
1.81409e-05
1.81403e-05
1.81402e-05
1.81402e-05
1.81402e-05
1.8247e-05
1.85017e-05
1.88024e-05
1.9154e-05
1.95645e-05
2.00451e-05
2.06108e-05
2.12812e-05
2.20633e-05
2.29239e-05
2.38731e-05
2.50079e-05
2.63633e-05
2.78838e-05
2.96603e-05
3.16222e-05
3.37699e-05
3.60068e-05
3.82046e-05
4.02784e-05
4.21994e-05
4.39587e-05
4.55371e-05
4.69621e-05
4.82511e-05
4.94104e-05
5.04502e-05
5.13742e-05
5.21608e-05
5.27988e-05
5.32437e-05
5.33914e-05
5.31243e-05
5.24364e-05
5.08058e-05
4.71781e-05
4.14239e-05
3.33702e-05
2.50562e-05
2.04093e-05
1.8788e-05
1.83153e-05
1.81846e-05
1.81508e-05
1.81426e-05
1.81407e-05
1.81403e-05
1.81402e-05
1.81402e-05
1.81402e-05
1.82185e-05
1.84033e-05
1.86203e-05
1.88734e-05
1.91674e-05
1.95088e-05
1.99041e-05
2.03522e-05
2.08727e-05
2.14826e-05
2.22031e-05
2.3027e-05
2.39164e-05
2.49639e-05
2.61504e-05
2.75055e-05
2.90464e-05
3.07561e-05
3.25608e-05
3.43856e-05
3.61864e-05
3.79235e-05
3.95699e-05
4.11194e-05
4.25649e-05
4.38938e-05
4.51002e-05
4.61772e-05
4.71026e-05
4.78441e-05
4.83352e-05
4.84544e-05
4.81187e-05
4.72238e-05
4.49884e-05
4.08629e-05
3.49175e-05
2.75794e-05
2.20238e-05
1.93923e-05
1.85161e-05
1.82453e-05
1.81677e-05
1.8147e-05
1.81418e-05
1.81405e-05
1.81403e-05
1.81402e-05
1.81402e-05
1.81402e-05
1.81968e-05
1.83297e-05
1.84859e-05
1.86678e-05
1.88767e-05
1.91167e-05
1.93922e-05
1.9709e-05
2.00749e-05
2.05007e-05
2.10007e-05
2.15941e-05
2.22742e-05
2.30539e-05
2.3878e-05
2.48626e-05
2.60147e-05
2.73247e-05
2.87519e-05
3.02456e-05
3.1767e-05
3.32817e-05
3.47581e-05
3.61814e-05
3.75218e-05
3.87725e-05
3.9906e-05
4.09081e-05
4.17383e-05
4.23506e-05
4.26533e-05
4.25346e-05
4.19798e-05
4.0571e-05
3.77069e-05
3.34312e-05
2.79796e-05
2.30411e-05
1.99897e-05
1.87668e-05
1.83352e-05
1.81965e-05
1.81554e-05
1.81441e-05
1.81411e-05
1.81404e-05
1.81402e-05
1.81402e-05
1.81402e-05
1.81402e-05
1.81792e-05
1.8271e-05
1.83792e-05
1.8506e-05
1.86532e-05
1.88231e-05
1.90187e-05
1.92435e-05
1.95028e-05
1.98034e-05
2.01507e-05
2.05373e-05
2.09947e-05
2.15435e-05
2.22076e-05
2.3008e-05
2.38584e-05
2.48245e-05
2.59132e-05
2.70793e-05
2.8288e-05
2.95067e-05
3.07112e-05
3.18821e-05
3.29785e-05
3.39703e-05
3.48451e-05
3.55718e-05
3.61009e-05
3.63724e-05
3.62939e-05
3.58693e-05
3.47932e-05
3.2814e-05
2.99293e-05
2.63139e-05
2.27927e-05
2.01841e-05
1.89293e-05
1.84164e-05
1.82288e-05
1.81666e-05
1.81475e-05
1.81421e-05
1.81407e-05
1.81403e-05
1.81402e-05
1.81402e-05
1.81402e-05
1.81402e-05
1.81651e-05
1.8225e-05
1.82971e-05
1.83831e-05
1.84843e-05
1.86022e-05
1.87386e-05
1.88955e-05
1.90733e-05
1.92701e-05
1.94957e-05
1.97579e-05
2.00678e-05
2.04405e-05
2.08944e-05
2.14256e-05
2.20631e-05
2.28156e-05
2.36196e-05
2.44754e-05
2.53636e-05
2.62554e-05
2.71258e-05
2.79526e-05
2.87098e-05
2.93727e-05
2.98898e-05
3.02323e-05
3.03562e-05
3.02463e-05
2.98461e-05
2.8964e-05
2.76126e-05
2.57908e-05
2.36642e-05
2.14776e-05
1.98212e-05
1.88794e-05
1.84313e-05
1.82441e-05
1.81743e-05
1.81506e-05
1.81432e-05
1.8141e-05
1.81404e-05
1.81402e-05
1.81402e-05
1.81402e-05
1.81402e-05
1.81402e-05
1.81538e-05
1.8189e-05
1.82337e-05
1.82889e-05
1.83554e-05
1.84325e-05
1.85205e-05
1.86204e-05
1.87334e-05
1.88613e-05
1.90073e-05
1.9176e-05
1.93742e-05
1.9602e-05
1.98744e-05
2.0207e-05
2.06094e-05
2.10841e-05
2.16271e-05
2.22195e-05
2.28337e-05
2.34118e-05
2.39484e-05
2.4431e-05
2.48367e-05
2.51429e-05
2.53235e-05
2.53469e-05
2.52166e-05
2.4848e-05
2.42291e-05
2.33957e-05
2.23104e-05
2.1104e-05
2.00114e-05
1.91793e-05
1.86487e-05
1.83616e-05
1.82274e-05
1.81715e-05
1.81506e-05
1.81434e-05
1.81411e-05
1.81404e-05
1.81403e-05
1.81402e-05
1.81402e-05
1.81402e-05
1.81402e-05
1.81402e-05
1.81447e-05
1.81604e-05
1.81842e-05
1.82149e-05
1.82525e-05
1.82968e-05
1.83484e-05
1.84072e-05
1.84736e-05
1.85483e-05
1.86313e-05
1.87227e-05
1.88274e-05
1.89503e-05
1.90978e-05
1.92763e-05
1.94913e-05
1.97431e-05
2.0026e-05
2.033e-05
2.06388e-05
2.09355e-05
2.12019e-05
2.1419e-05
2.15681e-05
2.16321e-05
2.16187e-05
2.14999e-05
2.12363e-05
2.0853e-05
2.03785e-05
1.98631e-05
1.9363e-05
1.89309e-05
1.86011e-05
1.83807e-05
1.82528e-05
1.81878e-05
1.81586e-05
1.81468e-05
1.81424e-05
1.81409e-05
1.81404e-05
1.81402e-05
1.81402e-05
1.81402e-05
1.81402e-05
1.81402e-05
1.81402e-05
1.81402e-05
1.81404e-05
1.81439e-05
1.81507e-05
1.81608e-05
1.81743e-05
1.81911e-05
1.82112e-05
1.82343e-05
1.82594e-05
1.82862e-05
1.8316e-05
1.8349e-05
1.83858e-05
1.84273e-05
1.84755e-05
1.85323e-05
1.85987e-05
1.86738e-05
1.87545e-05
1.88364e-05
1.89141e-05
1.89814e-05
1.90327e-05
1.90623e-05
1.90663e-05
1.90409e-05
1.89851e-05
1.88985e-05
1.87876e-05
1.86635e-05
1.85383e-05
1.84234e-05
1.83276e-05
1.82549e-05
1.82048e-05
1.81739e-05
1.81567e-05
1.81468e-05
1.81422e-05
1.81408e-05
1.81404e-05
1.81403e-05
1.81402e-05
1.81402e-05
1.81402e-05
1.81402e-05
1.81402e-05
1.81402e-05
1.81402e-05
1.81402e-05
)
;

boundaryField
{
    AXIS
    {
        type            empty;
    }
    OUTLET
    {
        type            calculated;
        value           uniform 1.81402e-05;
    }
    COFLOW
    {
        type            calculated;
        value           uniform 1.81402e-05;
    }
    PILOT
    {
        type            calculated;
        value           uniform 7.09187e-05;
    }
    FUEL
    {
        type            calculated;
        value           uniform 1.81402e-05;
    }
    WALL
    {
        type            calculated;
        value           nonuniform List<scalar> 
50
(
1.81404e-05
1.81439e-05
1.81507e-05
1.81608e-05
1.81743e-05
1.81911e-05
1.82112e-05
1.82343e-05
1.82594e-05
1.82862e-05
1.8316e-05
1.8349e-05
1.83858e-05
1.84273e-05
1.84755e-05
1.85323e-05
1.85987e-05
1.86738e-05
1.87545e-05
1.88364e-05
1.89141e-05
1.89814e-05
1.90327e-05
1.90623e-05
1.90663e-05
1.90409e-05
1.89851e-05
1.88985e-05
1.87876e-05
1.86635e-05
1.85383e-05
1.84234e-05
1.83276e-05
1.82549e-05
1.82048e-05
1.81739e-05
1.81567e-05
1.81468e-05
1.81422e-05
1.81408e-05
1.81404e-05
1.81403e-05
1.81402e-05
1.81402e-05
1.81402e-05
1.81402e-05
1.81402e-05
1.81402e-05
1.81402e-05
1.81402e-05
)
;
    }
    front
    {
        type            wedge;
    }
    back
    {
        type            wedge;
    }
}


// ************************************************************************* //
