/*--------------------------------*- C++ -*----------------------------------*\
| =========                 |                                                 |
| \\      /  F ield         | OpenFOAM: The Open Source CFD Toolbox           |
|  \\    /   O peration     | Version:  2.4.x                                 |
|   \\  /    A nd           | Web:      www.OpenFOAM.org                      |
|    \\/     M anipulation  |                                                 |
\*---------------------------------------------------------------------------*/
FoamFile
{
    version     2.0;
    format      ascii;
    class       volVectorField;
    location    "0.06";
    object      U;
}
// * * * * * * * * * * * * * * * * * * * * * * * * * * * * * * * * * * * * * //

dimensions      [0 1 -1 0 0 0 0];

internalField   nonuniform List<vector> 
1250
(
(10.4548 -0.035516 -7.32964e-15)
(11.904 0.0624497 -4.07816e-14)
(12.613 0.128722 -8.19651e-14)
(12.9537 0.157106 -1.79528e-13)
(13.0639 0.147707 -1.39779e-13)
(13.0244 0.166694 -6.78422e-15)
(12.9171 0.112118 9.05647e-14)
(12.7875 0.144576 8.08698e-14)
(12.6391 0.1052 1.72842e-13)
(12.5323 0.140774 1.30607e-14)
(12.3789 0.135248 1.45193e-13)
(12.2291 0.0857836 2.89688e-13)
(12.0964 0.115533 4.32104e-13)
(11.9464 0.0753505 2.6305e-13)
(11.8258 0.0989 5.04791e-13)
(11.6932 0.0646249 1.6892e-12)
(11.5746 0.0833956 3.01248e-13)
(11.4375 0.0545737 1.56561e-12)
(11.3152 0.0700666 -3.33908e-12)
(11.1918 0.0671471 2.26014e-11)
(11.0761 0.0441835 7.34337e-12)
(10.9758 0.0578943 2.23417e-12)
(10.8732 0.0368054 2.15153e-12)
(10.7618 0.0514955 9.93335e-13)
(10.6427 0.0358359 2.37938e-12)
(10.5436 0.0465833 1.97378e-12)
(10.4454 0.0329853 2.20222e-12)
(10.3477 0.0405357 1.46861e-12)
(10.2459 0.0279656 1.83989e-12)
(10.1399 0.037233 7.01185e-13)
(10.0118 0.0298996 1.52182e-12)
(9.87114 0.0362974 1.87443e-12)
(9.68968 0.0344711 1.67465e-12)
(9.42854 0.0438567 3.3886e-13)
(9.02176 0.051048 1.76052e-12)
(8.51647 0.0728127 3.53366e-12)
(7.46858 0.0682353 -8.79912e-12)
(5.83543 0.0814014 -1.63934e-12)
(3.98917 0.0489769 1.47486e-11)
(2.66486 0.0246539 4.24023e-12)
(2.1251 0.014842 2.78786e-12)
(1.86015 0.00685589 1.55937e-12)
(1.73898 0.00402554 2.04944e-12)
(1.6895 0.00263252 -2.06801e-11)
(1.65681 0.0017804 -3.85134e-12)
(1.63689 0.00119585 -1.57118e-12)
(1.62286 0.000845107 4.01161e-14)
(1.61221 0.000557609 6.34845e-13)
(1.60648 0.000410243 -2.83961e-12)
(1.59946 0.000209536 2.05043e-11)
(10.5667 -0.0966226 -2.00789e-14)
(12.0695 0.192914 -1.20459e-13)
(12.6797 0.356173 -2.39011e-13)
(12.9559 0.427591 -5.10702e-13)
(13.0211 0.462536 -3.02977e-13)
(12.9605 0.436609 2.74971e-14)
(12.8317 0.401092 2.14156e-13)
(12.6844 0.378754 2.33011e-13)
(12.5534 0.388627 3.71837e-13)
(12.4354 0.369136 2.72496e-15)
(12.2921 0.341966 4.67861e-13)
(12.1404 0.308892 6.75524e-13)
(12.0031 0.295998 1.26712e-12)
(11.8621 0.273754 5.38759e-13)
(11.7419 0.253578 1.64799e-12)
(11.618 0.234959 3.65595e-12)
(11.4963 0.211669 6.53111e-13)
(11.3647 0.197498 2.93215e-12)
(11.2408 0.181078 -7.43613e-12)
(11.1289 0.168765 2.8123e-11)
(11.0174 0.162908 1.12791e-11)
(10.9178 0.148395 5.19871e-12)
(10.8175 0.13342 4.201e-12)
(10.7069 0.128355 2.67454e-12)
(10.5903 0.133067 5.28539e-12)
(10.4903 0.119565 5.60272e-12)
(10.3972 0.11455 4.74808e-12)
(10.3009 0.104927 3.92327e-12)
(10.2014 0.100983 3.7556e-12)
(10.0966 0.0952741 1.87006e-12)
(9.97171 0.093839 3.36878e-12)
(9.8317 0.09543 5.0491e-12)
(9.65596 0.101776 3.31972e-12)
(9.39913 0.111263 8.97226e-13)
(9.00187 0.133212 4.93845e-12)
(8.50846 0.183005 9.79583e-12)
(7.47126 0.252159 -2.00783e-11)
(5.86345 0.209291 -4.07723e-12)
(4.02809 0.130805 2.70196e-11)
(2.68729 0.0662074 1.13637e-11)
(2.13438 0.0430023 7.7272e-12)
(1.86438 0.0180994 4.33793e-12)
(1.74112 0.0104854 5.39165e-12)
(1.69137 0.00671125 -2.93399e-11)
(1.65839 0.00458656 -1.00543e-11)
(1.63845 0.00303781 -4.31523e-12)
(1.62435 0.00214083 2.10215e-13)
(1.61368 0.00141625 1.77582e-12)
(1.60791 0.00105428 -7.81405e-12)
(1.60086 0.000603556 2.12637e-11)
(10.7112 -0.154493 -3.07952e-14)
(12.289 0.437967 -2.39799e-13)
(12.7427 0.655861 -4.55655e-13)
(12.8894 0.726197 -1.05156e-12)
(12.8666 0.720242 -5.49227e-13)
(12.7617 0.685552 3.68897e-13)
(12.5973 0.656507 5.41963e-13)
(12.4578 0.629988 4.1866e-13)
(12.3325 0.609765 7.08145e-13)
(12.2138 0.579987 -1.51124e-13)
(12.0791 0.540343 1.15475e-12)
(11.9319 0.494724 1.60886e-12)
(11.7976 0.461077 2.40566e-12)
(11.6715 0.423495 9.04324e-13)
(11.5585 0.39382 3.99542e-12)
(11.449 0.364367 7.12467e-12)
(11.3289 0.331626 -7.28972e-14)
(11.2047 0.302549 3.58494e-12)
(11.0903 0.281759 -7.55058e-12)
(10.9845 0.263694 2.08159e-11)
(10.8821 0.245531 9.92693e-12)
(10.7884 0.230195 5.12255e-12)
(10.6947 0.212396 6.2033e-12)
(10.5876 0.198897 3.99641e-12)
(10.4768 0.194161 1.12634e-11)
(10.3774 0.187064 9.59896e-12)
(10.288 0.172774 7.99299e-12)
(10.1964 0.162351 6.32868e-12)
(10.1005 0.153557 6.22684e-12)
(9.99958 0.148382 2.75704e-12)
(9.87759 0.144954 7.14484e-12)
(9.74208 0.148178 8.81761e-12)
(9.56979 0.154247 4.80119e-12)
(9.31956 0.17376 1.50999e-12)
(8.93138 0.206141 1.0165e-11)
(8.44307 0.285703 1.52398e-11)
(7.41956 0.372101 -1.3782e-11)
(5.84175 0.323866 -3.94167e-12)
(4.02446 0.201711 2.86758e-11)
(2.688 0.104408 1.64633e-11)
(2.13643 0.0668281 1.17806e-11)
(1.86596 0.0293515 6.81724e-12)
(1.7421 0.0168364 7.53146e-12)
(1.69264 0.0107147 -2.29784e-11)
(1.65964 0.00729283 -1.4166e-11)
(1.6397 0.00483862 -6.33876e-12)
(1.6256 0.00340289 9.60688e-13)
(1.61495 0.00225576 2.78079e-12)
(1.60917 0.0016686 -1.27034e-11)
(1.6022 0.000911689 2.04583e-11)
(10.6624 0.116687 -4.34242e-14)
(12.5152 0.917754 -4.92616e-13)
(12.6692 1.09455 -8.78528e-13)
(12.5969 1.08895 -2.46946e-12)
(12.4663 1.05873 -4.58558e-13)
(12.3142 1.00207 2.06378e-12)
(12.1649 0.95206 1.00271e-12)
(12.0359 0.905354 5.73702e-13)
(11.9236 0.853521 1.07377e-12)
(11.8236 0.797418 -6.30102e-13)
(11.7065 0.738006 3.03634e-12)
(11.583 0.674832 3.34401e-12)
(11.4689 0.62582 3.92e-12)
(11.3638 0.577816 1.4128e-12)
(11.2683 0.535776 9.32659e-12)
(11.1751 0.495408 1.0498e-11)
(11.0688 0.450264 -3.80831e-12)
(10.958 0.412438 2.98174e-12)
(10.8572 0.383816 -5.24257e-12)
(10.7631 0.359351 1.10488e-11)
(10.6719 0.336078 6.37406e-13)
(10.587 0.314085 3.37607e-12)
(10.5022 0.289132 5.80228e-12)
(10.4044 0.267167 5.4336e-12)
(10.3001 0.260159 2.06098e-11)
(10.2066 0.253161 1.29682e-11)
(10.1217 0.238601 1.02144e-11)
(10.0368 0.222842 8.07299e-12)
(9.94694 0.210998 7.66873e-12)
(9.8519 0.203668 3.41286e-12)
(9.73513 0.199412 1.13957e-11)
(9.60561 0.203372 1.2312e-11)
(9.43718 0.213223 3.00405e-12)
(9.19304 0.238891 2.8533e-12)
(8.81619 0.283667 1.9284e-11)
(8.33028 0.392806 2.03745e-11)
(7.30548 0.511508 -9.60933e-12)
(5.77204 0.439548 -2.00831e-12)
(3.9886 0.275198 2.85801e-11)
(2.6727 0.146552 1.94445e-11)
(2.133 0.0932338 1.44577e-11)
(1.86466 0.0411494 8.6725e-12)
(1.74185 0.0236444 8.57746e-12)
(1.69332 0.0149604 -9.52771e-12)
(1.66056 0.0102088 -1.70803e-11)
(1.64075 0.00676548 -7.20527e-12)
(1.62676 0.00475357 2.84435e-12)
(1.61619 0.00315386 3.4471e-12)
(1.61044 0.00232752 -1.80002e-11)
(1.60357 0.00128868 1.25432e-11)
(10.006 0.754163 -7.64739e-14)
(12.1697 1.79152 -1.4477e-12)
(12.0016 1.66973 -1.36858e-12)
(11.6931 1.51582 -1.00674e-12)
(11.5902 1.43077 -9.20312e-13)
(11.4818 1.32577 2.51596e-13)
(11.3971 1.22532 6.36149e-13)
(11.3357 1.13813 5.14829e-13)
(11.2876 1.06178 1.40748e-12)
(11.2383 0.984929 -1.41407e-12)
(11.1658 0.903975 8.80996e-12)
(11.0825 0.828962 5.96063e-12)
(11.0057 0.766745 5.5095e-12)
(10.9323 0.70773 3.30906e-12)
(10.8652 0.657179 5.83659e-12)
(10.7986 0.606989 9.36878e-12)
(10.7132 0.553079 2.19789e-12)
(10.6235 0.509199 4.91553e-12)
(10.5418 0.474494 -3.20725e-12)
(10.4638 0.444266 9.22841e-12)
(10.3875 0.415165 5.6402e-12)
(10.3152 0.387781 6.41608e-12)
(10.2437 0.356213 -4.61713e-12)
(10.1577 0.328735 1.01471e-11)
(10.0654 0.314479 1.36949e-11)
(9.98062 0.305336 1.18854e-11)
(9.90165 0.294912 1.07897e-11)
(9.82401 0.278131 8.79065e-12)
(9.74294 0.262656 7.79587e-12)
(9.65525 0.253686 5.06283e-12)
(9.54563 0.248916 5.84498e-12)
(9.42388 0.253999 1.31185e-11)
(9.25975 0.26677 2.03934e-11)
(9.02281 0.299368 7.67993e-12)
(8.65868 0.357778 1.25203e-11)
(8.17027 0.49526 2.4559e-11)
(7.14677 0.63475 -1.21269e-11)
(5.66035 0.542309 -4.71513e-12)
(3.9225 0.339657 2.7133e-11)
(2.64163 0.185255 2.04292e-11)
(2.12509 0.116244 1.56885e-11)
(1.86147 0.0524939 9.78916e-12)
(1.74081 0.0301674 9.08232e-12)
(1.69366 0.0190053 -2.72442e-12)
(1.6614 0.0130204 -1.05227e-11)
(1.6418 0.00862722 -6.51157e-12)
(1.62801 0.0060571 -5.64944e-12)
(1.61756 0.0040217 3.40352e-12)
(1.61187 0.00296081 -2.4358e-11)
(1.60515 0.00162855 1.31965e-12)
(7.58812 0.410079 -3.46502e-13)
(8.47368 2.3087 -3.24746e-12)
(9.42453 1.87829 -2.14241e-12)
(9.71968 1.76287 -1.9255e-12)
(10.0013 1.61256 -1.47551e-12)
(10.1538 1.48527 -2.93665e-13)
(10.2676 1.37991 5.62626e-13)
(10.351 1.28559 6.48393e-13)
(10.4157 1.19937 1.71097e-12)
(10.4496 1.10843 -1.2075e-12)
(10.4455 1.0196 6.35825e-12)
(10.4269 0.937796 6.83081e-12)
(10.4043 0.873345 6.66061e-12)
(10.3789 0.813866 4.89522e-12)
(10.3528 0.7576 5.70326e-12)
(10.3189 0.699191 8.75874e-12)
(10.2628 0.637741 4.27336e-12)
(10.2017 0.590253 6.02897e-12)
(10.145 0.55072 -2.71087e-12)
(10.0885 0.515811 1.38611e-11)
(10.0313 0.482089 9.01924e-12)
(9.97579 0.450347 7.22097e-12)
(9.92005 0.414489 2.58176e-12)
(9.84987 0.381954 5.91111e-12)
(9.77247 0.36281 9.85016e-12)
(9.70016 0.348485 1.06017e-11)
(9.63107 0.338304 1.06734e-11)
(9.56162 0.325556 8.38328e-12)
(9.49034 0.309836 6.83092e-12)
(9.41193 0.298941 5.59035e-12)
(9.31135 0.293682 2.15112e-12)
(9.19865 0.300238 1.97427e-11)
(9.03953 0.316414 1.70595e-11)
(8.81163 0.356021 8.95365e-12)
(8.46025 0.429802 1.12892e-11)
(7.96178 0.59318 1.77863e-11)
(6.94798 0.744368 -1.02549e-11)
(5.51094 0.63116 -5.44803e-12)
(3.83145 0.392978 2.46992e-11)
(2.60027 0.223046 1.98073e-11)
(2.1125 0.137264 1.56426e-11)
(1.8559 0.063254 1.01711e-11)
(1.73945 0.0365569 9.21108e-12)
(1.69376 0.0229342 5.41488e-13)
(1.6622 0.0157916 -6.31125e-12)
(1.64291 0.0104644 -5.56155e-12)
(1.62937 0.00734227 -3.36542e-12)
(1.6191 0.00487804 3.46969e-12)
(1.61351 0.00358038 -2.42922e-11)
(1.60694 0.00196265 -4.53502e-12)
(4.00921 -0.650759 -1.72207e-12)
(5.19004 0.378371 -3.2307e-12)
(6.56816 1.00247 -2.58049e-12)
(7.44053 1.36492 -3.13649e-12)
(8.0913 1.42468 -1.4765e-12)
(8.53631 1.41315 4.25274e-13)
(8.88462 1.36845 1.32856e-12)
(9.14349 1.3063 1.29768e-12)
(9.34774 1.23381 2.19408e-12)
(9.48939 1.1477 -7.29389e-13)
(9.58055 1.0625 9.29084e-12)
(9.64301 0.990794 8.14369e-12)
(9.68896 0.932494 7.83543e-12)
(9.71826 0.878078 5.91949e-12)
(9.73758 0.824581 7.79796e-12)
(9.7434 0.764874 9.32372e-12)
(9.72483 0.699107 3.8174e-12)
(9.6991 0.650077 5.66055e-12)
(9.67244 0.608116 -2.10395e-12)
(9.64207 0.5701 1.49208e-11)
(9.60811 0.533342 8.13727e-12)
(9.57306 0.499184 6.33317e-12)
(9.53615 0.460789 5.99211e-12)
(9.48509 0.425001 5.09203e-12)
(9.42516 0.402127 9.32644e-12)
(9.36754 0.384157 1.04103e-11)
(9.31176 0.371039 1.025e-11)
(9.25364 0.359731 6.50265e-12)
(9.19257 0.348372 4.90804e-12)
(9.12424 0.338186 4.58789e-12)
(9.03486 0.332364 2.22104e-12)
(8.93232 0.340919 1.91526e-11)
(8.77911 0.360561 1.29107e-11)
(8.56237 0.407555 7.88666e-12)
(8.22196 0.497663 1.22931e-11)
(7.70941 0.683212 1.2352e-11)
(6.71382 0.839264 -9.32714e-12)
(5.33031 0.706564 -4.62589e-12)
(3.72068 0.440199 2.12867e-11)
(2.55056 0.256351 1.79295e-11)
(2.09551 0.154394 1.46034e-11)
(1.84895 0.0728405 9.90577e-12)
(1.73802 0.0426358 9.02821e-12)
(1.6937 0.0267127 1.71778e-12)
(1.66301 0.0184661 -3.78673e-12)
(1.64408 0.0122434 -4.62659e-12)
(1.63088 0.00858474 -8.30617e-13)
(1.62081 0.00570608 3.28211e-12)
(1.61535 0.00417759 -2.06625e-11)
(1.60895 0.00228598 -6.96611e-12)
(2.80937 -2.40369 -5.12598e-12)
(2.81849 -0.866751 -3.25491e-12)
(4.13501 0.118641 -2.54019e-12)
(5.26107 0.743211 -4.88851e-12)
(6.17388 1.02119 6.83751e-14)
(6.85287 1.15786 3.50518e-12)
(7.40334 1.20476 3.12539e-12)
(7.82915 1.20482 2.41268e-12)
(8.1698 1.1712 2.88007e-12)
(8.42282 1.10937 5.69801e-13)
(8.61178 1.04636 6.74553e-12)
(8.75939 0.989515 9.03436e-12)
(8.8779 0.939281 9.02364e-12)
(8.97075 0.889758 6.54512e-12)
(9.04309 0.843595 1.27297e-11)
(9.08977 0.794657 9.69679e-12)
(9.11197 0.734069 -2.19529e-13)
(9.1265 0.685395 4.32989e-12)
(9.13384 0.643834 -1.00807e-12)
(9.13308 0.605449 1.08294e-11)
(9.12581 0.568259 3.59949e-12)
(9.11417 0.533488 5.11649e-12)
(9.09834 0.494516 8.6861e-12)
(9.06862 0.456897 4.67415e-12)
(9.02835 0.431034 1.16395e-11)
(8.98758 0.410852 1.08585e-11)
(8.947 0.395577 8.80191e-12)
(8.90289 0.38284 2.34881e-12)
(8.85419 0.374155 2.21591e-12)
(8.79645 0.368573 2.86551e-12)
(8.71916 0.364768 5.8887e-12)
(8.62762 0.375345 1.31511e-11)
(8.48148 0.398605 5.22829e-12)
(8.27786 0.453061 6.08491e-12)
(7.94548 0.559421 1.4491e-11)
(7.41907 0.763651 6.50583e-12)
(6.45205 0.914741 -5.13467e-12)
(5.12566 0.771091 -2.33649e-12)
(3.59332 0.477533 1.72491e-11)
(2.49254 0.286662 1.52015e-11)
(2.07395 0.166475 1.28946e-11)
(1.84119 0.0813801 9.13093e-12)
(1.73635 0.0483865 8.56985e-12)
(1.69348 0.0303496 1.38464e-12)
(1.66384 0.0210375 -2.43636e-12)
(1.64534 0.0139614 -3.75678e-12)
(1.63252 0.00978136 1.9754e-12)
(1.6227 0.00650407 2.65476e-12)
(1.6174 0.00475245 -1.41194e-11)
(1.61117 0.00259765 -7.36426e-12)
(2.66915 -1.45586 -2.9296e-12)
(1.60571 -1.13665 -2.11296e-12)
(2.40019 -0.576651 -1.96307e-12)
(3.50463 0.0883852 -3.26727e-12)
(4.49433 0.522377 1.63099e-12)
(5.29654 0.793696 4.51044e-12)
(5.97139 0.938255 5.27488e-12)
(6.51881 1.00851 3.39091e-12)
(6.96622 1.02277 3.73166e-12)
(7.31584 0.998147 1.88683e-12)
(7.5946 0.967575 9.96514e-12)
(7.82186 0.934201 1.31516e-11)
(8.00967 0.900802 1.02829e-11)
(8.16389 0.864402 7.57329e-12)
(8.29008 0.826895 1.07748e-11)
(8.38141 0.789361 4.87317e-12)
(8.44361 0.742996 2.58858e-12)
(8.49829 0.698705 4.54219e-12)
(8.5422 0.659558 3.3059e-13)
(8.57299 0.623064 1.06322e-11)
(8.5941 0.58717 6.45281e-12)
(8.60747 0.553015 7.14983e-12)
(8.61433 0.515188 1.89472e-12)
(8.6072 0.476841 3.92334e-12)
(8.58825 0.448608 8.00884e-12)
(8.56608 0.427212 1.00788e-11)
(8.54222 0.410817 4.14702e-12)
(8.51355 0.397296 -5.18048e-12)
(8.47889 0.38912 -2.75902e-13)
(8.4335 0.387406 2.38248e-12)
(8.36869 0.388514 2.14629e-12)
(8.28797 0.402807 8.35635e-12)
(8.15087 0.429989 5.95263e-12)
(7.96135 0.491532 6.68311e-12)
(7.63409 0.613315 1.00495e-11)
(7.09867 0.832822 5.98586e-12)
(6.16845 0.972029 -3.82722e-12)
(4.90439 0.822243 -2.88427e-12)
(3.45351 0.50386 1.18514e-11)
(2.4288 0.314777 1.19647e-11)
(2.04881 0.176943 1.08446e-11)
(1.83263 0.0881594 7.9993e-12)
(1.73456 0.0538224 7.84989e-12)
(1.69315 0.0338177 -2.79729e-13)
(1.66469 0.023482 -1.84253e-12)
(1.64668 0.0156051 -2.85513e-12)
(1.63429 0.0109231 2.86927e-13)
(1.62476 0.00726652 1.48055e-12)
(1.61963 0.00530129 -1.03462e-11)
(1.61359 0.00289608 -6.9343e-12)
(2.14517 -1.04566 -3.73689e-13)
(1.22797 -0.977174 -8.234e-13)
(1.52695 -0.815637 -1.1249e-12)
(2.27726 -0.362607 -1.92416e-12)
(3.17037 0.0762017 -1.26091e-13)
(3.96902 0.409622 1.46586e-12)
(4.68253 0.624522 2.53904e-12)
(5.29065 0.758949 3.35884e-12)
(5.80378 0.825373 4.87032e-12)
(6.22497 0.844327 3.81768e-12)
(6.57545 0.848416 6.82086e-12)
(6.86832 0.842392 9.33101e-12)
(7.11578 0.829653 9.54562e-12)
(7.32519 0.809281 7.72839e-12)
(7.50065 0.782087 9.482e-12)
(7.63116 0.751797 6.96691e-12)
(7.73467 0.718673 4.63969e-12)
(7.82903 0.687712 5.18184e-12)
(7.90935 0.654617 2.43299e-12)
(7.97227 0.621813 6.57725e-12)
(8.02249 0.588195 8.02853e-12)
(8.06197 0.555479 8.79278e-12)
(8.09235 0.519872 5.74191e-12)
(8.10844 0.482673 4.95589e-12)
(8.1121 0.453966 6.8696e-12)
(8.10993 0.432716 8.57631e-12)
(8.10383 0.416161 5.31125e-12)
(8.09153 0.402857 -2.7809e-12)
(8.07134 0.395477 3.70443e-13)
(8.03983 0.395598 3.06033e-12)
(7.98853 0.401903 5.90266e-13)
(7.91813 0.422192 6.03036e-12)
(7.79238 0.453653 5.91555e-12)
(7.61633 0.522971 8.37636e-12)
(7.2923 0.658503 5.84862e-12)
(6.75636 0.885274 4.37686e-12)
(5.86818 1.00947 5.20794e-13)
(4.67142 0.860653 -2.7003e-12)
(3.30946 0.520126 8.7947e-12)
(2.36151 0.334929 8.78808e-12)
(2.02347 0.19271 8.75843e-12)
(1.82451 0.0943666 6.64929e-12)
(1.73279 0.0588645 6.83263e-12)
(1.69276 0.0371191 2.29318e-12)
(1.66559 0.0257807 -1.5542e-12)
(1.64812 0.0171666 -1.9875e-12)
(1.63621 0.0120048 -7.90512e-13)
(1.62698 0.00799033 1.09712e-13)
(1.62205 0.00582209 -8.45141e-12)
(1.6162 0.00318002 -6.19676e-12)
(1.08315 -0.0792999 -2.80415e-14)
(1.29451 -0.425826 -5.40851e-14)
(1.25374 -0.600858 -3.89121e-13)
(1.58107 -0.47742 -9.80244e-13)
(2.20502 -0.209763 -9.56093e-13)
(2.88654 0.0866833 -1.08779e-12)
(3.55712 0.318344 -1.95056e-13)
(4.16697 0.489038 4.07215e-12)
(4.70082 0.596462 7.52403e-12)
(5.1595 0.661197 6.14983e-12)
(5.55619 0.700891 6.47127e-12)
(5.89852 0.720472 7.30547e-12)
(6.19259 0.727575 8.42903e-12)
(6.44679 0.722743 7.06764e-12)
(6.66252 0.699601 8.82435e-12)
(6.83384 0.68111 7.15199e-12)
(6.97944 0.661153 5.91283e-12)
(7.11377 0.64618 5.76852e-12)
(7.22875 0.62245 4.34327e-12)
(7.32374 0.596135 4.19539e-12)
(7.40367 0.567323 1.15578e-11)
(7.47031 0.538071 1.04503e-11)
(7.52568 0.506446 7.29673e-12)
(7.56627 0.47338 6.02332e-12)
(7.59363 0.446918 7.10139e-12)
(7.61251 0.426946 6.96115e-12)
(7.62505 0.411266 1.38847e-11)
(7.63005 0.399191 4.88407e-12)
(7.62449 0.393162 3.69099e-12)
(7.60828 0.39511 4.24458e-12)
(7.57192 0.40588 6.21097e-12)
(7.51234 0.432385 6.60348e-12)
(7.40031 0.469323 6.47368e-12)
(7.23607 0.548248 1.09417e-11)
(6.91369 0.695417 7.33586e-14)
(6.38957 0.923211 2.48059e-12)
(5.54502 1.02813 3.8446e-12)
(4.42548 0.889005 -2.84298e-12)
(3.15983 0.531453 4.14143e-12)
(2.29407 0.355333 5.69135e-12)
(1.99624 0.210416 6.8009e-12)
(1.81551 0.100399 5.13024e-12)
(1.73077 0.0636531 5.71445e-12)
(1.69231 0.0403443 3.70064e-12)
(1.66658 0.0279903 -1.85505e-12)
(1.64973 0.0186839 -1.1182e-12)
(1.63834 0.0130524 -1.53711e-12)
(1.62945 0.00869341 -1.38549e-12)
(1.62472 0.00632758 -7.75017e-12)
(1.6191 0.00345647 -5.29967e-12)
(0.964412 -0.0195717 4.51262e-14)
(1.17416 -0.182225 2.90274e-13)
(1.15072 -0.268769 3.97981e-15)
(1.26082 -0.301623 -5.62887e-13)
(1.56768 -0.259373 -1.83716e-12)
(2.04294 -0.106428 -4.42643e-12)
(2.58971 0.0704892 -3.0241e-12)
(3.13567 0.230152 8.46542e-12)
(3.64908 0.354143 1.44662e-11)
(4.11601 0.447521 8.56367e-12)
(4.52858 0.513708 6.89103e-12)
(4.89651 0.555986 5.63369e-12)
(5.22083 0.582386 7.628e-12)
(5.50605 0.594189 5.66572e-12)
(5.75183 0.586074 9.12265e-12)
(5.9657 0.583247 5.89155e-12)
(6.15603 0.580171 6.83493e-12)
(6.32472 0.575496 6.21021e-12)
(6.47179 0.56098 5.77121e-12)
(6.59893 0.542935 3.43389e-12)
(6.70949 0.521534 7.62938e-12)
(6.80468 0.498449 1.12287e-11)
(6.88675 0.473303 6.73261e-12)
(6.95349 0.446766 6.76542e-12)
(7.00584 0.424971 8.0798e-12)
(7.0471 0.407728 6.86453e-12)
(7.07995 0.394193 1.23976e-11)
(7.1036 0.384611 9.32e-12)
(7.11571 0.381163 7.15163e-12)
(7.1138 0.385268 6.52852e-12)
(7.09399 0.399787 1.48539e-11)
(7.04826 0.432512 7.78052e-12)
(6.9516 0.476749 8.22145e-12)
(6.79744 0.567114 1.42504e-11)
(6.47838 0.723662 -1.29687e-12)
(5.97826 0.948494 1.16084e-12)
(5.1797 1.02709 7.6597e-12)
(4.15064 0.902531 -4.18536e-12)
(2.9933 0.540403 3.97633e-13)
(2.22426 0.370014 3.02872e-12)
(1.96635 0.222805 5.11254e-12)
(1.8051 0.106292 3.37947e-12)
(1.72809 0.0683725 4.60392e-12)
(1.69169 0.0436047 4.37122e-12)
(1.66762 0.0302062 -2.97241e-12)
(1.65154 0.0202261 -4.74777e-14)
(1.64076 0.014115 -2.27528e-12)
(1.63227 0.00940948 -3.13063e-12)
(1.62777 0.00684148 -7.88788e-12)
(1.62242 0.00373832 -4.15019e-12)
(0.950304 0.0231455 9.78165e-14)
(1.0397 -0.0564254 7.76766e-13)
(1.06397 -0.0964536 1.19238e-13)
(1.12304 -0.117645 -7.41479e-13)
(1.25151 -0.133276 -3.69563e-12)
(1.48996 -0.109492 -1.05328e-11)
(1.8394 -0.0457052 -4.6707e-12)
(2.25469 0.0484412 7.58426e-12)
(2.68877 0.149297 8.39325e-12)
(3.11332 0.237633 6.79847e-12)
(3.51274 0.311855 5.95473e-12)
(3.88512 0.369243 2.56388e-12)
(4.22147 0.411465 8.30438e-12)
(4.5264 0.43982 3.1377e-12)
(4.79834 0.455268 1.17534e-11)
(5.04034 0.470072 1.12544e-12)
(5.25821 0.479556 9.24737e-12)
(5.45484 0.481589 6.45438e-12)
(5.63198 0.476459 6.69486e-12)
(5.78977 0.467655 2.06424e-12)
(5.92979 0.454827 7.23833e-12)
(6.05324 0.439268 1.33738e-11)
(6.16247 0.421678 2.80616e-12)
(6.25602 0.402229 8.11449e-12)
(6.33398 0.385462 9.93784e-12)
(6.39843 0.371961 7.50846e-12)
(6.45285 0.361895 1.37205e-11)
(6.4966 0.355859 1.25433e-11)
(6.52819 0.35583 1.02578e-11)
(6.5451 0.364348 9.08635e-12)
(6.53913 0.381594 9.02508e-12)
(6.5104 0.420728 5.65925e-12)
(6.42992 0.474539 1.24463e-11)
(6.2838 0.577494 1.90002e-11)
(5.9738 0.738276 6.40252e-12)
(5.51168 0.953224 9.76063e-13)
(4.76455 1.00909 5.28911e-12)
(3.8352 0.89666 -8.39439e-12)
(2.80334 0.542136 -2.60856e-12)
(2.15206 0.381307 1.48117e-12)
(1.93468 0.22885 3.9504e-12)
(1.79232 0.111773 1.26131e-12)
(1.72454 0.072899 3.75907e-12)
(1.69063 0.0468778 4.42583e-12)
(1.66859 0.0324187 -9.60344e-13)
(1.65347 0.0217957 1.62772e-12)
(1.64341 0.0151977 -3.4787e-12)
(1.63542 0.0101433 -5.36544e-12)
(1.6312 0.00736625 -8.64963e-12)
(1.62617 0.00402652 -2.44396e-12)
(0.930646 0.0204998 3.86648e-14)
(0.991046 -0.010292 1.51833e-13)
(1.01887 -0.0227838 -1.6366e-13)
(1.06092 -0.0259024 -1.26828e-12)
(1.12258 -0.0260788 -7.13478e-12)
(1.22573 -0.0201298 -6.23364e-12)
(1.38928 -0.00999949 3.24314e-13)
(1.62324 0.00998563 5.4942e-13)
(1.91596 0.0452069 1.95815e-12)
(2.2459 0.0943952 2.6984e-12)
(2.58644 0.152772 3.07987e-12)
(2.92285 0.208394 -4.8272e-12)
(3.24376 0.253336 -5.57824e-12)
(3.54617 0.289231 -3.08839e-12)
(3.82583 0.315513 8.53972e-12)
(4.08173 0.337907 2.84445e-12)
(4.31837 0.355346 4.85096e-12)
(4.53642 0.366835 4.57944e-12)
(4.73599 0.371468 6.78738e-12)
(4.91769 0.372024 -2.07851e-12)
(5.0821 0.368015 1.8622e-12)
(5.23036 0.360668 6.93359e-12)
(5.36402 0.351118 3.12556e-12)
(5.48201 0.339111 1.55336e-11)
(5.58417 0.327724 1.29756e-11)
(5.67182 0.318593 8.43006e-12)
(5.74838 0.31314 2.07278e-11)
(5.81335 0.311159 1.53269e-11)
(5.86526 0.31553 1.21365e-11)
(5.90229 0.328606 1.16534e-11)
(5.91452 0.353063 2.08903e-12)
(5.90091 0.398602 3.04718e-12)
(5.8349 0.461902 5.99955e-12)
(5.69524 0.576579 1.0907e-11)
(5.40686 0.736058 9.39423e-12)
(4.98828 0.931532 -8.14738e-13)
(4.3029 0.975324 3.91785e-12)
(3.47847 0.872809 -1.13428e-11)
(2.58769 0.533654 -3.88997e-12)
(2.06876 0.380568 2.34476e-12)
(1.89799 0.227687 3.41566e-12)
(1.77679 0.116664 -1.50066e-12)
(1.71973 0.0770674 3.87311e-12)
(1.68894 0.0500468 4.14723e-12)
(1.66931 0.0345295 -3.33583e-14)
(1.65539 0.0233347 -7.83229e-13)
(1.6462 0.0162641 -6.28645e-12)
(1.63881 0.0108713 -8.47115e-12)
(1.63492 0.00788401 -9.61478e-12)
(1.6303 0.00431047 3.76828e-13)
(0.920492 0.0171705 5.73115e-15)
(0.960357 0.013516 -1.29351e-14)
(0.987144 0.0154526 -2.5201e-13)
(1.02068 0.0194708 -1.03651e-12)
(1.06065 0.0255855 -3.015e-12)
(1.11559 0.0347707 -3.64417e-12)
(1.19249 0.0438916 -2.51398e-12)
(1.29974 0.0511423 -4.81014e-12)
(1.4457 0.0592842 -2.5459e-12)
(1.63456 0.0694051 -9.54695e-13)
(1.86005 0.0842678 -2.09909e-12)
(2.11005 0.104565 -3.84356e-12)
(2.37205 0.129916 -4.84984e-12)
(2.63821 0.159316 -4.27565e-12)
(2.8989 0.187139 -1.86727e-12)
(3.14842 0.212062 -2.65048e-12)
(3.3859 0.232654 2.23942e-12)
(3.60993 0.248345 3.03477e-12)
(3.82049 0.258567 6.17482e-12)
(4.01671 0.264078 -1.53571e-12)
(4.19755 0.265824 1.16766e-12)
(4.36396 0.265138 2.71903e-12)
(4.5168 0.262357 4.85181e-12)
(4.65503 0.256966 8.38843e-12)
(4.77807 0.250985 1.24974e-11)
(4.88698 0.247296 9.98371e-12)
(4.98446 0.247509 1.37391e-11)
(5.07 0.251805 1.33149e-11)
(5.14299 0.262414 1.17265e-11)
(5.19983 0.2818 1.13827e-11)
(5.23144 0.312793 7.1584e-12)
(5.23127 0.365077 2.07043e-12)
(5.17657 0.437999 2.5134e-12)
(5.04722 0.558813 5.35176e-12)
(4.78961 0.714435 1.15627e-11)
(4.40552 0.886056 1.03506e-12)
(3.80075 0.922246 -9.73698e-13)
(3.08733 0.820343 -9.45102e-12)
(2.3589 0.513888 -1.54748e-12)
(1.98953 0.373635 4.81097e-13)
(1.85464 0.219919 2.43347e-12)
(1.75809 0.120219 -5.20911e-13)
(1.71305 0.0802863 9.63855e-13)
(1.68644 0.052817 3.45178e-12)
(1.66959 0.0364054 -5.37822e-12)
(1.65715 0.0247615 -4.11536e-12)
(1.649 0.0172617 -6.08433e-12)
(1.64233 0.0115599 -7.25147e-12)
(1.63885 0.0083698 -9.71774e-12)
(1.6347 0.00457609 2.13011e-12)
(0.913936 0.0137503 3.08706e-15)
(0.941205 0.0222209 -8.6607e-15)
(0.965072 0.0313378 -1.42606e-13)
(0.991919 0.0398934 -8.40863e-13)
(1.02288 0.0488136 -2.48538e-12)
(1.06081 0.0582385 -3.53709e-12)
(1.10677 0.0673956 -2.68917e-12)
(1.16505 0.0766847 -2.8181e-12)
(1.23824 0.0842483 -2.38977e-12)
(1.32929 0.0899312 -1.99299e-12)
(1.44148 0.0939405 -9.56897e-12)
(1.57905 0.0944334 -6.55362e-12)
(1.74448 0.0962941 -5.56105e-12)
(1.93089 0.101839 -3.79661e-12)
(2.13217 0.109111 -1.19151e-11)
(2.34072 0.119433 -8.80822e-12)
(2.55004 0.131746 7.22794e-12)
(2.75661 0.143412 4.01514e-12)
(2.95761 0.153223 6.81949e-12)
(3.15049 0.159283 -1.14081e-11)
(3.33449 0.163182 4.53685e-12)
(3.50821 0.165938 8.02405e-13)
(3.67064 0.167484 1.22605e-11)
(3.82093 0.167602 6.46261e-12)
(3.95938 0.167763 1.65183e-11)
(4.08605 0.170421 1.08822e-11)
(4.2019 0.176258 1.05941e-11)
(4.30591 0.186648 1.05457e-11)
(4.39586 0.203108 9.90005e-12)
(4.46814 0.22731 9.75786e-12)
(4.51515 0.264164 7.94671e-12)
(4.52629 0.3215 -2.92624e-12)
(4.48069 0.402491 -2.6757e-13)
(4.36438 0.52427 2.07762e-12)
(4.13703 0.675073 6.19098e-12)
(3.78447 0.8237 -2.19494e-12)
(3.27365 0.848497 -1.26001e-12)
(2.6757 0.734793 -3.69439e-12)
(2.13962 0.477782 7.20307e-13)
(1.90366 0.347215 1.44147e-13)
(1.80803 0.203694 1.91672e-12)
(1.73722 0.121054 -6.51112e-13)
(1.70487 0.081934 -8.85356e-13)
(1.68301 0.0548509 2.41838e-12)
(1.66924 0.0378621 -1.00196e-11)
(1.65858 0.0259524 -7.20622e-12)
(1.65164 0.0181112 -6.88526e-12)
(1.64585 0.0121573 -6.88355e-12)
(1.64283 0.00878764 -8.94919e-12)
(1.63926 0.00480219 -4.91434e-13)
(0.909268 0.0114211 2.36528e-14)
(0.929457 0.0248073 1.12228e-13)
(0.949395 0.036903 3.98978e-13)
(0.9714 0.0478518 -4.41513e-13)
(0.995767 0.0583836 -1.40125e-12)
(1.02432 0.0678959 -1.91017e-12)
(1.05826 0.0766709 -1.9518e-12)
(1.09766 0.0846764 -1.98037e-12)
(1.1428 0.0916501 -1.93644e-12)
(1.19606 0.0980911 -2.0477e-12)
(1.25834 0.102483 -3.6019e-12)
(1.33097 0.104525 -3.80891e-12)
(1.41711 0.105276 -3.69449e-12)
(1.52014 0.103822 -3.74448e-12)
(1.64154 0.099829 3.13182e-12)
(1.77939 0.0958872 -9.75262e-13)
(1.9316 0.0920383 1.10903e-12)
(2.09313 0.0875999 7.89826e-13)
(2.25971 0.0844268 3.53308e-12)
(2.42746 0.0830179 -9.56204e-12)
(2.59419 0.0828575 -2.93482e-12)
(2.75745 0.0841313 -1.93268e-12)
(2.91521 0.0862027 1.94335e-12)
(3.06576 0.0888824 1.5266e-12)
(3.20822 0.0932335 5.43513e-12)
(3.34098 0.0996859 5.32013e-12)
(3.46417 0.109241 7.31621e-12)
(3.57638 0.122936 7.68573e-12)
(3.6746 0.142901 7.43381e-12)
(3.75432 0.171804 7.67016e-12)
(3.80748 0.213564 4.62991e-12)
(3.82242 0.275662 -1.79758e-13)
(3.78115 0.361403 -7.63503e-13)
(3.67752 0.482968 4.75833e-13)
(3.47504 0.623992 2.85781e-12)
(3.16134 0.742072 -4.3888e-13)
(2.7471 0.757038 -1.17486e-12)
(2.27979 0.618113 2.37188e-12)
(1.94158 0.441199 4.72941e-13)
(1.83289 0.31536 3.57e-13)
(1.76909 0.186055 -3.77757e-12)
(1.717 0.120171 -2.53612e-12)
(1.69543 0.0818971 -2.4258e-12)
(1.67862 0.0559289 6.52793e-13)
(1.6681 0.0387309 -1.12922e-11)
(1.65953 0.0267684 -8.66885e-12)
(1.65396 0.0187206 -7.41715e-12)
(1.64919 0.0126054 -6.78203e-12)
(1.64671 0.00909662 -7.52652e-12)
(1.64377 0.00496722 -7.64165e-12)
(0.906511 0.00958527 1.15241e-14)
(0.921697 0.0237523 7.12227e-14)
(0.937897 0.0365536 3.92118e-13)
(0.955956 0.0481243 -4.30457e-13)
(0.975936 0.0589157 -1.59596e-12)
(0.998518 0.0688992 -1.56109e-12)
(1.02425 0.0777851 -1.55925e-12)
(1.05392 0.0852128 -1.57683e-12)
(1.08774 0.09128 -1.6213e-12)
(1.12492 0.0959141 -1.80702e-12)
(1.16564 0.0991038 -2.40992e-12)
(1.21347 0.101832 -2.45524e-12)
(1.26971 0.103746 -2.33941e-12)
(1.33403 0.102918 -2.24511e-12)
(1.40757 0.100961 -8.79266e-13)
(1.492 0.0953291 -8.1968e-13)
(1.58938 0.0867925 -3.23322e-13)
(1.69963 0.0750075 -1.23534e-12)
(1.82039 0.0635117 -1.28762e-12)
(1.94783 0.0537364 3.7284e-12)
(2.07988 0.0462215 1.5586e-12)
(2.21396 0.0418633 -9.58372e-13)
(2.34707 0.0397203 -1.44521e-12)
(2.47771 0.0402349 -2.13187e-12)
(2.60472 0.0430632 7.87592e-13)
(2.72577 0.0492205 6.35812e-13)
(2.83967 0.0590457 7.13702e-12)
(2.94367 0.0737608 5.42383e-12)
(3.0337 0.0956303 4.77867e-12)
(3.10465 0.126813 5.29935e-12)
(3.1492 0.171518 -2.8592e-12)
(3.1564 0.235522 -2.36232e-12)
(3.11345 0.323375 -1.82552e-12)
(3.01573 0.439286 -3.35904e-13)
(2.83669 0.556953 1.11288e-12)
(2.57378 0.644771 -1.02507e-12)
(2.25825 0.635503 -1.74945e-12)
(1.94761 0.512977 -3.69717e-13)
(1.80008 0.376223 -8.71917e-13)
(1.76025 0.27858 -8.23449e-13)
(1.7252 0.168665 -1.90448e-12)
(1.69626 0.116083 -3.69871e-12)
(1.68447 0.0797458 -3.30821e-12)
(1.67314 0.0556066 -2.16389e-12)
(1.66606 0.0387397 -1.11508e-11)
(1.6598 0.0270096 -7.80662e-12)
(1.65574 0.0189594 -6.85457e-12)
(1.65214 0.0128124 -6.31453e-12)
(1.65026 0.00924088 -6.63865e-12)
(1.648 0.00503887 -6.02638e-12)
(0.904711 0.00795581 -5.83026e-14)
(0.916198 0.0211177 -3.94138e-13)
(0.929138 0.0333018 -2.49261e-13)
(0.943832 0.0445116 -4.85915e-13)
(0.960215 0.0549249 -8.86081e-13)
(0.978614 0.0644649 -1.12152e-12)
(0.999241 0.0730461 -1.25087e-12)
(1.02212 0.0803991 -1.30346e-12)
(1.04757 0.0861102 -1.36388e-12)
(1.07647 0.0901136 -1.5836e-12)
(1.10949 0.0928373 -2.60314e-12)
(1.14662 0.0949115 -1.65976e-12)
(1.18691 0.0947205 -1.27864e-12)
(1.23337 0.0933036 -1.07713e-12)
(1.28722 0.0903608 -6.95486e-13)
(1.34806 0.0839018 -3.13249e-13)
(1.41849 0.075256 -4.91212e-13)
(1.49728 0.0642249 -4.93885e-12)
(1.58457 0.0524036 -3.25606e-12)
(1.67747 0.0415183 -1.16554e-12)
(1.77489 0.0324356 9.0647e-14)
(1.87442 0.025444 -5.23596e-12)
(1.97452 0.0209669 -5.54388e-12)
(2.07399 0.0194113 -5.69117e-12)
(2.17172 0.0208533 1.41126e-12)