/*--------------------------------*- C++ -*----------------------------------*\
| =========                 |                                                 |
| \\      /  F ield         | OpenFOAM: The Open Source CFD Toolbox           |
|  \\    /   O peration     | Version:  2.4.x                                 |
|   \\  /    A nd           | Web:      www.OpenFOAM.org                      |
|    \\/     M anipulation  |                                                 |
\*---------------------------------------------------------------------------*/
FoamFile
{
    version     2.0;
    format      ascii;
    class       volScalarField;
    location    "0.06";
    object      varZ;
}
// * * * * * * * * * * * * * * * * * * * * * * * * * * * * * * * * * * * * * //

dimensions      [0 0 0 0 0 0 0];

internalField   nonuniform List<scalar> 
1250
(
0.00111888
0.00460489
0.00989886
0.0160598
0.0225968
0.0289615
0.0347376
0.0395791
0.0433804
0.0462164
0.0481366
0.0493087
0.0497386
0.0496604
0.0492458
0.0483349
0.0471395
0.0457556
0.0442348
0.0426226
0.0409629
0.0392848
0.0376247
0.0359957
0.0344262
0.032929
0.0315015
0.0301999
0.0289612
0.0278062
0.0269172
0.0258769
0.0249083
0.024848
0.025978
0.030551
0.0467731
0.0541092
0.0431634
0.0167075
0.00359043
0.000656717
0.000122473
2.29014e-05
4.13313e-06
7.12997e-07
1.17808e-07
1.87007e-08
2.85963e-09
4.09956e-10
0.00125895
0.00517029
0.0110337
0.0177282
0.0246825
0.0312416
0.0370285
0.0417264
0.045325
0.0479451
0.0496436
0.0506039
0.0508492
0.0506567
0.0500653
0.0490345
0.0477581
0.0463034
0.0447239
0.0430642
0.0413655
0.0396565
0.0379719
0.036325
0.0347409
0.033234
0.0318004
0.0304949
0.029254
0.0281017
0.0272116
0.0261679
0.0252112
0.0251552
0.0263007
0.030905
0.0471331
0.0540436
0.0429826
0.0165921
0.00356562
0.000652482
0.000121736
2.2775e-05
4.11247e-06
7.09838e-07
1.17357e-07
1.8641e-08
2.85236e-09
4.09166e-10
0.00167434
0.00681943
0.0142957
0.0223891
0.0302554
0.0370587
0.0426542
0.0468664
0.0498981
0.0519393
0.0530666
0.0535191
0.0533754
0.0528382
0.0518621
0.0505933
0.0491223
0.0475074
0.0457968
0.0440305
0.0422455
0.0404678
0.0387293
0.0370421
0.0354265
0.0338975
0.0324505
0.0311362
0.0298903
0.0287437
0.0278508
0.0267994
0.0258733
0.0258313
0.0270121
0.0316938
0.0479291
0.053887
0.0425332
0.0162939
0.00349767
0.000640981
0.000119804
2.24447e-05
4.05785e-06
7.01303e-07
1.16101e-07
1.84672e-08
2.82977e-09
4.06478e-10
0.00284838
0.0111466
0.0223215
0.0327861
0.0414562
0.0478573
0.0525107
0.0555144
0.0573288
0.058274
0.0583759
0.0580566
0.0572385
0.0560521
0.0545952
0.0529455
0.0511712
0.0493107
0.0474003
0.0454728
0.0435575
0.0416762
0.0398566
0.0381083
0.0364473
0.0348836
0.0334167
0.0320888
0.0308356
0.0296968
0.0287978
0.0277362
0.0268616
0.0268503
0.0280906
0.0329004
0.0490588
0.0536152
0.0417927
0.0158097
0.00338461
0.000621928
0.000116629
2.19023e-05
3.96773e-06
6.871e-07
1.13986e-07
1.81693e-08
2.79015e-09
4.01619e-10
0.00774664
0.0243748
0.0422197
0.0537338
0.0609455
0.0649772
0.0671085
0.067739
0.0675101
0.0667853
0.0655007
0.0639603
0.0621801
0.0602196
0.0581359
0.0559903
0.0538198
0.0516392
0.0494695
0.0473329
0.045249
0.043234
0.0413103
0.0394836
0.0377653
0.036159
0.0346647
0.0333193
0.0320573
0.0309274
0.0300175
0.028947
0.0281473
0.0281772
0.0295017
0.034524
0.0503539
0.0531925
0.0407436
0.0151601
0.00323066
0.000596077
0.000112335
2.11696e-05
3.84595e-06
6.67875e-07
1.11113e-07
1.77628e-08
2.73575e-09
3.94894e-10
0.0492021
0.0687626
0.0811359
0.0861273
0.0876938
0.0869416
0.0850044
0.0823763
0.0795045
0.0766253
0.0736815
0.0707614
0.0678711
0.0650242
0.0622312
0.0595246
0.0569017
0.0543526
0.0518842
0.0495072
0.0472291
0.0450613
0.043019
0.0411037
0.0393209
0.0376691
0.0361453
0.0347788
0.0335082
0.0323872
0.0314616
0.0303885
0.0296855
0.0297679
0.0311832
0.0366126
0.0515364
0.0525854
0.0393835
0.0143629
0.00304186
0.000564476
0.000107093
2.02758e-05
3.69747e-06
6.44441e-07
1.0761e-07
1.72671e-08
2.66936e-09
3.86681e-10
0.0702535
0.110627
0.119244
0.118058
0.114234
0.108435
0.102509
0.096771
0.091383
0.0864666
0.0818962
0.0776504
0.0736893
0.0699772
0.0664903
0.0632319
0.0601555
0.0572316
0.054459
0.0518368
0.0493602
0.0470386
0.0448773
0.0428744
0.0410285
0.0393339
0.0377849
0.0363995
0.0351212
0.0340091
0.0330644
0.0320017
0.0314133
0.0315588
0.0331202
0.0389917
0.0524285
0.0517805
0.0377291
0.0134323
0.00282602
0.000528482
0.000101118
1.92566e-05
3.52824e-06
6.17763e-07
1.03629e-07
1.67045e-08
2.59419e-09
3.77417e-10
0.0306353
0.114799
0.135541
0.135825
0.131143
0.12343
0.115432
0.107865
0.100881
0.09459
0.0888562
0.0836338
0.0788557
0.0744633
0.0704263
0.0667051
0.0632393
0.0599885
0.0569501
0.0541126
0.0514625
0.0490098
0.0467472
0.0446718
0.0427752
0.0410483
0.0394838
0.0380885
0.0368088
0.0357051
0.0347421
0.0337089
0.0332466
0.0334637
0.0352168
0.0415339
0.0528793
0.050749
0.0357912
0.0123975
0.0025924
0.000489658
9.46537e-05
1.81524e-05
3.34504e-06
5.88935e-07
9.93374e-08
1.61003e-08
2.51388e-09
3.67596e-10
0.0171087
0.0859448
0.122444
0.13275
0.132124
0.127537
0.120425
0.113139
0.106054
0.0994452
0.0933226
0.087713
0.0825589
0.0778242
0.0734958
0.069493
0.0657675
0.0622996
0.0590797
0.0560939
0.0533272
0.0507908
0.0484642
0.0463466
0.0444236
0.0426852
0.041121
0.0397293
0.0384598
0.0373684
0.036393
0.0354132
0.03508
0.0353756
0.0373286
0.043943
0.052877
0.0494835
0.0335871
0.0112974
0.00235142
0.00044968
8.79591e-05
1.7007e-05
3.15523e-06
5.59145e-07
9.49202e-08
1.54821e-08
2.43241e-09
3.5776e-10
0.0121087
0.0470735
0.0848548
0.107774
0.117347
0.118711
0.11604
0.111188
0.105559
0.0998254
0.094285
0.0890355
0.0840826
0.0794463
0.075157
0.0711308
0.0673473
0.0638267
0.0605543
0.0575237
0.0547311
0.05218
0.0498459
0.0477319
0.0458198
0.0441004
0.0425593
0.0411893
0.0399438
0.0388737
0.0379001
0.0370003
0.0367918
0.0371728
0.039269
0.0459653
0.0524321
0.0480029
0.0311376
0.010178
0.00211352
0.000410175
8.12983e-05
1.58654e-05
2.96642e-06
5.29629e-07
9.057e-08
1.48786e-08
2.354e-09
3.48489e-10
0.00306572
0.017898
0.0418558
0.0684407
0.0875469
0.0976067
0.10141
0.101101
0.0989541
0.0953194
0.0912729
0.0870702
0.082867
0.0787797
0.0748829
0.07114
0.0675795
0.064231
0.0610886
0.0581592
0.0554609
0.052986
0.0507289
0.0486827
0.0468326
0.0451728
0.0436853
0.0423606
0.0411564
0.0401215
0.0391736
0.0383855
0.0382954
0.0387782
0.0409883
0.0474245
0.0514875
0.0461991
0.0285019
0.00905406
0.00188069
0.00037129
7.46913e-05
1.47303e-05
2.77905e-06
5.00467e-07
8.63028e-08
1.42935e-08
2.27934e-09
3.39911e-10
0.00137956
0.00698699
0.0171544
0.0322035
0.0502625
0.0659087
0.076252
0.0818399
0.0840974
0.0840008
0.0828109
0.0805764
0.0778936
0.0749991
0.0720032
0.0689696
0.0659745
0.0630707
0.0602827
0.0576413
0.0551882
0.0529182
0.0508502
0.0489644
0.0472598
0.0457176
0.0443298
0.0430864
0.0419514
0.0409758
0.0400915
0.0394649
0.0394881
0.0401132
0.0424476
0.0481386
0.0499773
0.0438126
0.0256075
0.007877
0.00164184
0.000330878
6.77134e-05
1.35196e-05
2.57798e-06
4.69023e-07
8.16839e-08
1.36583e-08
2.1982e-09
3.30599e-10
0.000778895
0.00337585
0.00757713
0.0136762
0.0223951
0.0334514
0.0449178
0.054512
0.0612442
0.0653757
0.0675283
0.0681535
0.0678093
0.0668053
0.0652694
0.0634396
0.061481
0.0594355
0.0573537
0.0553006
0.0533447
0.0514934
0.0497667
0.0481593
0.0466926
0.0453443
0.0441217
0.0430077
0.0419864
0.041117
0.0403615
0.0399594
0.0401079
0.0409354
0.0433887
0.0478207
0.0477797
0.0405646
0.0223412
0.00660932
0.00138941
0.000287188
5.99535e-05
1.21434e-05
2.345e-06
4.3183e-07
7.60895e-08
1.28665e-08
2.09322e-09
3.17926e-10
0.000485236
0.00190249
0.0039059
0.00654103
0.0100285
0.0146785
0.0206632
0.0277435
0.0349612
0.0414006
0.0464466
0.0500329
0.0523148
0.0535865
0.0540272
0.0538798
0.0533787
0.0525366
0.0514799
0.0503081
0.0491142
0.0479176
0.0467385
0.0455939
0.0445054
0.0434793
0.0425279
0.0416373
0.0408229
0.0401388
0.0396167
0.039481
0.0398087
0.0408851
0.0433482
0.0462222
0.044754
0.0363084
0.0186376
0.00527267
0.00112696
0.000240301
5.13228e-05
1.05689e-05
2.07121e-06
3.86828e-07
6.90904e-08
1.18358e-08
1.94961e-09
2.99469e-10
0.000316806
0.00116761
0.00225705
0.00358389
0.00517965
0.00712301
0.00952798
0.0125464
0.0162233
0.0204669
0.0249992
0.029389
0.0332223
0.036341
0.0386956
0.0403339
0.0414077
0.0420178
0.0422288
0.0421686
0.0419628
0.0415891
0.0411187
0.0405894
0.0400235
0.0394496
0.0388901
0.0383576
0.0378871
0.0375368
0.037422
0.0376193
0.0382849
0.0396888
0.0418688
0.043116
0.040512
0.0309458
0.0146275
0.0039397
0.000865098
0.000191526
4.19841e-05
8.81197e-06
1.75661e-06
3.3345e-07
6.04918e-08
1.0518e-08
1.75725e-09
2.73389e-10
0.00021186
0.000746944
0.00139415
0.00214426
0.00299432
0.00395438
0.005049
0.00632302
0.00782946
0.00962546
0.0117527
0.0141975
0.0169112
0.0197248
0.0224584
0.0249309
0.0270503
0.0287877
0.0301298
0.0311273
0.031876
0.0323986
0.0327348
0.0329303
0.0330173
0.0330353
0.0330219
0.0330096
0.0330415
0.0331865
0.0335506
0.0342193
0.0353334
0.036894
0.0385249
0.0385434
0.0348938
0.0246242
0.010461
0.00271369
0.00062181
0.000143748
3.24029e-05
6.9487e-06
1.41249e-06
2.73157e-07
5.04402e-08
8.91937e-09
1.51419e-09
2.38975e-10
0.000142043
0.00048669
0.000890153
0.00134506
0.00184447
0.00238497
0.00296892
0.00360494
0.00430727
0.00509539
0.00599597
0.00703417
0.00824556
0.00962652
0.0111703
0.0128465
0.0145801
0.0162904
0.0178944
0.0193465
0.0206458
0.0217864
0.0227706
0.0236176
0.024349
0.0249963
0.0255944
0.0261816
0.0268114
0.0275467
0.0284579
0.0295969
0.0310051
0.0325125
0.0334328
0.0325619
0.027908
0.017635
0.00659776
0.00170167
0.000414449
0.000100262
2.32657e-05
5.10722e-06
1.06135e-06
2.09608e-07
3.94857e-08
7.1155e-09
1.22978e-09
1.97212e-10
9.4275e-05
0.000317498
0.000574184
0.000859695
0.00116881
0.00149707
0.0018418
0.00220294
0.00258317
0.00298759
0.00342482
0.0039045
0.00444135
0.00504863
0.00573698
0.00652238
0.00741251
0.00840911
0.0094942
0.0106296
0.0117881
0.012944
0.0140755
0.015171
0.0162281
0.0172553
0.0182697
0.0192965
0.0203734
0.0215378
0.0228196
0.024212
0.0256286
0.0267876
0.0269448
0.0252618
0.0198825
0.0107824
0.00360322
0.000968028
0.000252831
6.39407e-05
1.52873e-05
3.44268e-06
7.32907e-07
1.48161e-07
2.85358e-08
5.25108e-09
9.25705e-10
1.51076e-10
6.12414e-05
0.000204303
0.000367477
0.000548106
0.000742904
0.000948518
0.00116203
0.00138138
0.00160569
0.00183565
0.00207351
0.00232263
0.00258844
0.00287861
0.00320075
0.00356765
0.00399723
0.00451401
0.00512902
0.00583324
0.00661806
0.00747218
0.00838317
0.00933962
0.0103338
0.0113639
0.012434
0.0135525
0.0147322
0.0159785
0.0172742
0.018547
0.0196239
0.0201489
0.0196447
0.0171985
0.0117645
0.00533579
0.00172259
0.000500502
0.000139407
3.66586e-05
9.02808e-06
2.08894e-06
4.56417e-07
9.45903e-08
1.86594e-08
3.51276e-09
6.32745e-10
1.05227e-10
3.84208e-05
0.000127707
0.000229446
0.000342219
0.000464074
0.00059273
0.000725851
0.000861319
0.000997449
0.00113324
0.00126857
0.00140459
0.00154409
0.00169163
0.00185414
0.0020417
0.00226824
0.00255441
0.00291386
0.00334671
0.00385273
0.00442995
0.00507519
0.00578446
0.00655401
0.00738142
0.00826545
0.00920332
0.0101873
0.0111946
0.0121696
0.0129983
0.0134774
0.0133556
0.0122413
0.0094094
0.00535548
0.00218084
0.000740121
0.000232457
6.80059e-05
1.84893e-05
4.6875e-06
1.11523e-06
2.50341e-07
5.32492e-08
1.07685e-08
2.07606e-09
3.8257e-10
6.48759e-11
2.28452e-05
7.61099e-05
0.000137183
0.000205355
0.000279462
0.000357963
0.000439114
0.000521149
0.000602458
0.000681785
0.00075848
0.000832762
0.000906248
0.000982422
0.00106725
0.00116913
0.00129856
0.00146888
0.00169043
0.00196466
0.00229216
0.00267302
0.0031063
0.00359037
0.00412252
0.00469861
0.00531174
0.00595029
0.00659214
0.00719647
0.00769224
0.0079645
0.00789686
0.00731598
0.00589287
0.00383589
0.00192579
0.000787141
0.000285339
9.42152e-05
2.85123e-05
7.97621e-06
2.07889e-06
5.083e-07
1.17196e-07
2.55834e-08
5.30459e-09
1.04746e-09
1.97498e-10
3.41309e-11
1.24473e-05
4.20195e-05
7.65627e-05
0.000115704
0.000158669
0.000204382
0.000251585
0.000298973
0.000345326
0.000389665
0.00043144
0.000470802
0.000508872
0.000548211
0.000593162
0.000649869
0.000725639
0.000828124
0.000964131
0.00113491
0.00133977
0.00157805
0.0018481
0.00214725
0.00247106
0.00281247
0.00316016
0.00349669
0.00379503
0.00401619
0.00410113
0.00402232
0.00368272
0.00300446
0.00210926
0.00122869
0.000597971
0.000251612
9.42317e-05
3.18853e-05
9.87071e-06
2.8266e-06
7.54824e-07
1.89154e-07
4.4692e-08
9.99279e-09
2.1209e-09
4.28344e-10
8.25291e-11
1.44849e-11
5.71318e-06
2.02461e-05
3.80366e-05
5.87472e-05
8.17928e-05
0.000106416
0.000131773
0.000157015
0.000181394
0.00020433
0.000225538
0.0002452
0.000264183
0.00028414
0.000307746
0.000338689
0.000381048
0.000438521
0.000514446
0.000610139
0.000724361
0.000855549
0.00100097
0.00115676
0.00131726
0.00147463
0.00161787
0.0017331
0.00180182
0.00180711
0.00174181
0.00155812
0.00127262
0.000928425
0.000591972
0.000326088
0.00015578
6.54208e-05
2.45933e-05
8.39259e-06
2.63202e-06
7.65778e-07
2.08145e-07
5.31414e-08
1.27981e-08
2.91691e-09
6.30922e-10
1.29786e-10
2.5455e-11
4.50315e-12
1.57561e-06
6.90377e-06
1.45959e-05
2.383e-05
3.41788e-05
4.52265e-05
5.66267e-05
6.79577e-05
7.884e-05
8.90115e-05
9.83672e-05
0.000107021
0.000115374
0.000124312
0.000135252
0.000149955
0.000170269
0.000197694
0.000233069
0.000276621
0.000327327
0.000383723
0.000443853
0.000504511
0.000561357
0.000608974
0.000641152
0.000651722
0.000641601
0.000598685
0.000520066
0.000418835
0.000308287
0.0002044
0.00012039
6.23902e-05
2.85718e-05
1.16852e-05
4.32942e-06
1.46892e-06
4.60515e-07
1.34377e-07
3.67388e-08
9.45745e-09
2.29901e-09
5.28956e-10
1.15515e-10
2.39949e-11
4.75465e-12
8.34816e-13
5.37027e-08
9.85967e-07
2.34246e-06
3.93139e-06
5.78129e-06
7.8077e-06
9.96858e-06
1.21923e-05
1.43591e-05
1.6399e-05
1.82849e-05
2.00362e-05
2.16872e-05
2.34398e-05
2.56287e-05
2.85989e-05
3.26552e-05
3.79734e-05
4.4522e-05
5.21864e-05
6.07043e-05
6.96704e-05
7.86287e-05
8.6877e-05
9.35318e-05
9.76136e-05
9.8258e-05
9.48074e-05
8.70597e-05
7.52125e-05
6.0642e-05
4.5313e-05
3.11404e-05
1.95396e-05
1.10766e-05
5.64586e-06
2.60258e-06
1.09476e-06
4.28309e-07
1.5711e-07
4.64556e-08
1.06257e-08
2.6692e-09
8.20586e-10
2.19316e-10
4.09525e-11
7.77907e-12
1.57177e-12
3.52435e-13
5.82374e-14
)
;

boundaryField
{
    AXIS
    {
        type            empty;
    }
    OUTLET
    {
        type            zeroGradient;
    }
    COFLOW
    {
        type            fixedValue;
        value           uniform 0;
    }
    PILOT
    {
        type            fixedValue;
        value           uniform 0;
    }
    FUEL
    {
        type            fixedValue;
        value           uniform 0;
    }
    WALL
    {
        type            zeroGradient;
    }
    front
    {
        type            wedge;
    }
    back
    {
        type            wedge;
    }
}


// ************************************************************************* //
