/*--------------------------------*- C++ -*----------------------------------*\
| =========                 |                                                 |
| \\      /  F ield         | OpenFOAM: The Open Source CFD Toolbox           |
|  \\    /   O peration     | Version:  2.4.x                                 |
|   \\  /    A nd           | Web:      www.OpenFOAM.org                      |
|    \\/     M anipulation  |                                                 |
\*---------------------------------------------------------------------------*/
FoamFile
{
    version     2.0;
    format      ascii;
    class       volScalarField;
    location    "0.06";
    object      Z;
}
// * * * * * * * * * * * * * * * * * * * * * * * * * * * * * * * * * * * * * //

dimensions      [0 0 0 0 0 0 0];

internalField   nonuniform List<scalar> 
1250
(
0.997379
0.989514
0.978925
0.966907
0.953701
0.939735
0.925393
0.911173
0.897318
0.883873
0.870808
0.858015
0.845606
0.833566
0.821911
0.81064
0.799624
0.788815
0.778229
0.767866
0.757706
0.747735
0.737922
0.728181
0.718479
0.70884
0.699236
0.68951
0.67992
0.67003
0.659946
0.650165
0.639059
0.629355
0.616667
0.58575
0.497853
0.334248
0.176989
0.0662508
0.0154564
0.00299689
0.000584573
0.000114277
2.16332e-05
3.93336e-06
6.88841e-07
1.1659e-07
1.91213e-08
2.94978e-09
0.996974
0.988106
0.976578
0.963644
0.949572
0.934979
0.920231
0.905853
0.891955
0.878533
0.86554
0.852873
0.840614
0.82874
0.817252
0.806135
0.795266
0.7846
0.774158
0.763936
0.753908
0.744061
0.734359
0.724719
0.715108
0.705555
0.696026
0.686374
0.676848
0.667012
0.656998
0.64727
0.636233
0.626612
0.613888
0.582828
0.494751
0.332223
0.175972
0.0658467
0.0153601
0.00297933
0.000581391
0.000113714
2.15387e-05
3.91866e-06
6.86734e-07
1.16316e-07
1.90901e-08
2.94694e-09
0.995716
0.984016
0.96988
0.954494
0.938385
0.922585
0.907227
0.89274
0.878937
0.865793
0.853159
0.840917
0.829102
0.817678
0.806628
0.795929
0.785436
0.775132
0.765039
0.755151
0.745437
0.73588
0.726438
0.717035
0.707646
0.698288
0.688934
0.67945
0.670071
0.660356
0.650501
0.640887
0.63
0.620551
0.607727
0.576276
0.487664
0.327437
0.173461
0.0647825
0.0150921
0.00293103
0.000572948
0.000112221
2.12844e-05
3.87791e-06
6.80619e-07
1.15461e-07
1.89799e-08
2.9343e-09
0.991827
0.973498
0.953458
0.93369
0.91507
0.898467
0.883175
0.869319
0.856443
0.84432
0.832678
0.821416
0.810542
0.800006
0.789802
0.779877
0.770067
0.760402
0.75091
0.741584
0.73239
0.723311
0.714297
0.705278
0.696249
0.687216
0.678141
0.668926
0.659777
0.650256
0.640652
0.631211
0.620548
0.61134
0.59834
0.56624
0.476801
0.319981
0.169454
0.0630235
0.0146415
0.00285024
0.000558947
0.000109748
2.08608e-05
3.80922e-06
6.70132e-07
1.13957e-07
1.87781e-08
2.90972e-09
0.973984
0.940184
0.91134
0.889013
0.871017
0.856507
0.843874
0.832639
0.82232
0.812466
0.802823
0.793391
0.784182
0.775166
0.76634
0.757629
0.748887
0.740207
0.731622
0.723129
0.714697
0.706312
0.697916
0.689452
0.680926
0.672363
0.663694
0.654856
0.646025
0.636783
0.627524
0.618313
0.607951
0.599038
0.585776
0.552792
0.462478
0.310099
0.164071
0.0606133
0.0140236
0.0027399
0.000539904
0.000106391
2.02853e-05
3.71575e-06
6.55801e-07
1.11887e-07
1.84976e-08
2.87507e-09
0.798781
0.825874
0.817353
0.807797
0.799384
0.792818
0.786906
0.781087
0.775289
0.769267
0.762944
0.756384
0.749696
0.742897
0.736026
0.729001
0.721761
0.714453
0.707117
0.699755
0.692355
0.684899
0.677328
0.669598
0.661731
0.653767
0.645645
0.637309
0.628891
0.620022
0.611202
0.602277
0.5923
0.583722
0.570111
0.536046
0.445118
0.298115
0.157481
0.0576241
0.0132615
0.00260424
0.000516545
0.00010228
1.95814e-05
3.60146e-06
6.38281e-07
1.09355e-07
1.81544e-08
2.83267e-09
0.502826
0.641555
0.677056
0.693751
0.703103
0.709233
0.71322
0.715322
0.715828
0.715134
0.713331
0.710589
0.707218
0.703317
0.698999
0.694119
0.688804
0.683264
0.677519
0.671589
0.665491
0.659198
0.652656
0.645836
0.638783
0.631546
0.624086
0.61638
0.608483
0.600094
0.591805
0.58322
0.573726
0.565506
0.551473
0.5162
0.425253
0.28441
0.149882
0.0541504
0.0123857
0.00244886
0.000489799
9.75751e-05
1.87771e-05
3.47113e-06
6.18349e-07
1.06484e-07
1.77671e-08
2.78521e-09
0.32004
0.452071
0.516564
0.56013
0.590196
0.61109
0.626782
0.638121
0.646194
0.651541
0.654993
0.656834
0.657365
0.656968
0.655741
0.653423
0.65042
0.647015
0.643165
0.638935
0.634387
0.629456
0.624125
0.618373
0.612276
0.605891
0.599197
0.592215
0.584951
0.577168
0.569491
0.561307
0.552418
0.544551
0.530065
0.493564
0.403486
0.269395
0.141495
0.0503056
0.0114321
0.00228029
0.000460735
9.24619e-05
1.79046e-05
3.3302e-06
5.96887e-07
1.03413e-07
1.7357e-08
2.73575e-09
0.23962
0.280345
0.353257
0.418674
0.468125
0.504317
0.531931
0.552852
0.568828
0.580717
0.589873
0.596622
0.601489
0.604851
0.606874
0.607523
0.607213
0.606266
0.604538
0.602224
0.599433
0.596014
0.592049
0.587498
0.582483
0.577059
0.571231
0.56505
0.558502
0.55145
0.544464
0.536763
0.528624
0.521076
0.506162
0.468628
0.380415
0.253506
0.132551
0.0462261
0.0104412
0.00210571
0.000430509
8.71425e-05
1.69992e-05
3.1846e-06
5.74863e-07
1.00293e-07
1.69472e-08
2.68768e-09
0.134229
0.137475
0.201775
0.280206
0.344364
0.393991
0.432481
0.462612
0.486164
0.504577
0.519495
0.531207
0.540518
0.54781
0.553236
0.557126
0.559804
0.561489
0.562121
0.561908
0.561056
0.559249
0.556797
0.553568
0.549744
0.545371
0.540497
0.535187
0.529429
0.523207
0.516986
0.509889
0.502655
0.49536
0.480123
0.442008
0.356615
0.23718
0.123292
0.0420628
0.0094541
0.00193217
0.000400321
8.18288e-05
1.60981e-05
3.04061e-06
5.53299e-07
9.72868e-08
1.65629e-08
2.64468e-09
0.017697
0.0471213
0.0918643
0.157615
0.22482
0.2825
0.329529
0.367583
0.398125
0.422857
0.443198
0.459826
0.473617
0.484912
0.493886
0.501305
0.507316
0.511915
0.515174
0.517291
0.518447
0.518421
0.517705
0.515935
0.513423
0.510197
0.50638
0.502033
0.497176
0.491891
0.486513
0.480218
0.474049
0.466978
0.451528
0.413528
0.331865
0.220295
0.113645
0.037833
0.00847813
0.00176035
0.000370262
7.65336e-05
1.52036e-05
2.89873e-06
5.3231e-07
9.44207e-08
1.62099e-08
2.60794e-09
0.00499936
0.0177891
0.0371084
0.0705956
0.119047
0.17309
0.223062
0.266341
0.302714
0.333244
0.358684
0.380203
0.398424
0.413827
0.426646
0.43775
0.447205
0.454931
0.461081
0.465817
0.469258
0.471356
0.472381
0.47223
0.471313
0.469383
0.466802
0.463574
0.459808
0.455643
0.451252
0.446088
0.441151
0.434334
0.418826
0.381822
0.304826
0.201877
0.102982
0.0333167
0.00746448
0.00158039
0.00033831
7.08511e-05
1.42382e-05
2.74494e-06
5.09482e-07
9.12978e-08
1.58259e-08
2.56831e-09
0.00218862
0.00824877
0.0167
0.0299704
0.0515864
0.0836133
0.123152
0.164236
0.202406
0.23656
0.266314
0.292296
0.314714
0.334199
0.351032
0.365728
0.378541
0.389455
0.398602
0.406093
0.411972
0.416314
0.419338
0.421061
0.421651
0.421321
0.420248
0.418361
0.415975
0.413204
0.410078
0.406463
0.402815
0.396365
0.381191
0.346068
0.274654
0.181119
0.0907102
0.0283425
0.00637724
0.00138371
0.000302382
6.4311e-05
1.31025e-05
2.55941e-06
4.81062e-07
8.72405e-08
1.52935e-08
2.50681e-09
0.00121166
0.00452304
0.00884089
0.0147631
0.0233735
0.0362548
0.0550516
0.0803849
0.110235
0.141603
0.171814
0.199862
0.225148
0.24789
0.26819
0.286223
0.302283
0.316319
0.328341
0.338478
0.346766
0.353368
0.358468
0.362141
0.364551
0.365951
0.366498
0.366336
0.365739
0.364717
0.36333
0.361535
0.359033
0.353368
0.339242
0.306578
0.241337
0.157818
0.0766316
0.0229692
0.00522796
0.00116992
0.000261865
5.67031e-05
1.174e-05
2.32873e-06
4.44143e-07
8.16626e-08
1.45013e-08
2.40409e-09
0.000763757
0.00276988
0.00527471
0.00842667
0.0125133
0.017993
0.0255144
0.0359778
0.0501716
0.0684377
0.0901267
0.113793
0.137668
0.160834
0.182681
0.202835
0.221216
0.237681
0.252031
0.264372
0.274821
0.283529
0.29065
0.296326
0.300735
0.304132
0.306713
0.308637
0.310132
0.31131
0.312146
0.312156
0.310974
0.306604
0.294089
0.263816
0.205122
0.13198
0.0608952
0.0174576
0.0040648
0.000944523
0.000217338
4.80548e-05
1.01376e-05
2.04687e-06
3.96989e-07
7.41487e-08
1.33607e-08
2.24342e-09
0.000516003
0.00181636
0.00339581
0.0052915
0.00758593
0.0104134
0.0139683
0.0185327
0.0244739
0.0322393
0.0422891
0.0549192
0.0701028
0.0872845
0.105671
0.124293
0.142385
0.159318
0.174591
0.188105
0.199977
0.210292
0.219176
0.226794
0.233298
0.238897
0.24378
0.248098
0.252026
0.255653
0.258862
0.260935
0.260861
0.257908
0.246887
0.218545
0.16672
0.103985
0.0443353
0.0122588
0.0029697
0.000721243
0.00017098
3.86976e-05
8.34065e-06
1.71849e-06
3.39705e-07
6.45835e-08
1.18293e-08
2.01466e-09
0.000360288
0.00123942
0.00228695
0.0035142
0.00494678
0.00662839
0.00862579
0.011033
0.0139768
0.0176224
0.0221869
0.0279172
0.0351123
0.0439315
0.0544653
0.0665661
0.0797621
0.093347
0.106616
0.11918
0.130899
0.141706
0.151592
0.160614
0.168848
0.176406
0.183409
0.189947
0.196117
0.20189
0.207008
0.210647
0.211509
0.209181
0.198748
0.171889
0.127311
0.0747651
0.0286978
0.00786778
0.00202196
0.000514694
0.000125901
2.92367e-05
6.45478e-06
1.36059e-06
2.74745e-07
5.32733e-08
9.9362e-09
1.71881e-09
0.000254412
0.00086181
0.00157641
0.00240365
0.00335353
0.00444293
0.00569777
0.00715603
0.00887071
0.010912
0.013374
0.0163707
0.0200498
0.024561
0.0300322
0.0365771
0.0441926
0.0526973
0.0617664
0.0711082
0.080526
0.0898647
0.0990055
0.107873
0.116425
0.124649
0.132554
0.140124
0.147328
0.153998
0.159734
0.163665
0.164523
0.161813
0.150831
0.125547
0.0885409
0.046628
0.0162257
0.00461279
0.00127019
0.000338632
8.55582e-05
2.04333e-05
4.63162e-06
1.00097e-06
2.06911e-07
4.09941e-08
7.79839e-09
1.3718e-09
0.000178881
0.000600478
0.00109317
0.00166091
0.00230914
0.00304607
0.00388405
0.00484091
0.00594209
0.0072236
0.0087346
0.0105388
0.0127174
0.0153663
0.0185762
0.0224321
0.0270027
0.0323017
0.0382152
0.0445935
0.0513322
0.058335
0.0655137
0.0727836
0.080068
0.0872972
0.0944073
0.101296
0.107818
0.113697
0.118432
0.121141
0.120952
0.116824
0.104621
0.0822716
0.0528685
0.0240486
0.00811632
0.00248426
0.000729461
0.000202602
5.28573e-05
1.30015e-05
3.03103e-06
6.72651e-07
1.42531e-07
2.88945e-08
5.61318e-09
1.0048e-09
0.000123416
0.000412776
0.000750683
0.00114054
0.00158615
0.00209233
0.00266579
0.00331616
0.00405727
0.00490896
0.0058994
0.00706819
0.00846908
0.0101691
0.0122436
0.0147609
0.0177806
0.0213474
0.0254122
0.0298722
0.0346586
0.0397085
0.0449617
0.0503549
0.0558186
0.0612742
0.0666306
0.071747
0.0764176
0.0803154
0.0829336
0.0835183
0.0817268
0.0756181
0.0631982
0.0452524
0.0251223
0.0104358
0.00369792
0.0012201
0.000376413
0.000108276
2.91421e-05
7.3859e-06
1.77209e-06
4.04098e-07
8.78205e-08
1.8223e-08
3.61666e-09
6.58727e-10
8.20006e-05
0.000274902
0.000501692
0.000765349
0.00106872
0.0014148
0.0018074
0.00225186
0.00275603
0.00333155
0.00399577
0.0047737
0.00570096
0.00682588
0.00820816
0.00990863
0.0119783
0.0144519
0.0173054
0.020455
0.023835
0.0273877
0.0310547
0.0347768
0.0384852
0.0420951
0.0454975
0.0485422
0.0510125
0.0526132
0.0528952
0.0517335
0.0480305
0.0410141
0.0309556
0.0193884
0.00970092
0.00406994
0.00153839
0.000533157
0.000170245
5.04584e-05
1.39845e-05
3.64793e-06
8.99933e-07
2.10685e-07
4.69226e-08
9.95858e-09
2.01753e-09
3.73237e-10
5.0728e-05
0.000172415
0.000318449
0.000491232
0.000692599
0.000924202
0.00118797
0.0014867
0.00182476
0.00220891
0.0026496
0.00316279
0.00377151
0.0045083
0.00541488
0.00653657
0.00791116
0.00956256
0.0114843
0.0136101
0.0158719
0.0182107
0.0205654
0.0228729
0.0250624
0.0270493
0.0287262
0.0299606
0.0305574
0.0304232
0.0293468
0.0267914
0.0227989
0.0175539
0.0118064
0.00675448
0.00331683
0.0014364
0.000560873
0.000199243
6.51256e-05
1.97788e-05
5.62194e-06
1.50399e-06
3.80222e-07
9.11004e-08
2.07317e-08
4.48777e-09
9.25609e-10
1.73104e-10
2.68412e-05
9.59619e-05
0.000183411
0.000290443
0.000417809
0.000566022
0.000735717
0.000928031
0.00114509
0.00139047
0.00167005
0.00199297
0.00237296
0.00282916
0.00338655
0.0040728
0.00491026
0.0059076
0.00706002
0.0083317
0.00966587
0.0110098
0.0123047
0.0134914
0.0145068
0.0152847
0.0157472
0.015824
0.0155336
0.0146199
0.013064
0.0109599
0.00847702
0.00592566
0.00368413
0.00202082
0.000980517
0.00042468
0.000166558
5.96983e-05
1.9777e-05
6.10465e-06
1.76616e-06
4.81078e-07
1.23782e-07
3.01568e-08
6.9693e-09
1.52964e-09
3.19414e-10
5.98248e-11
8.73321e-06
3.8779e-05
8.45441e-05
0.000143433
0.00021521
0.000299867
0.00039795
0.000509515
0.000635022
0.000775949
0.000934892
0.00111549
0.001324
0.00157055
0.00186774
0.00222884
0.00266469
0.00317632
0.00375299
0.00437452
0.00500767
0.00561677
0.00616285
0.00660438
0.00690055
0.00701493
0.0069673
0.00669918
0.00612652
0.00533473
0.00437905
0.00335102
0.00236449
0.00152081
0.000882798
0.000459064
0.000214355
9.04682e-05
3.49234e-05
1.24314e-05
4.11782e-06
1.27488e-06
3.7033e-07
1.01347e-07
2.62055e-08
6.41488e-09
1.4886e-09
3.27712e-10
6.86002e-11
1.26419e-11
3.51475e-07
7.04032e-06
1.98556e-05
3.91175e-05
6.50217e-05
9.75863e-05
0.000136699
0.000181813
0.000231177
0.00028401
0.000343182
0.000409043
0.000482114
0.000564714
0.000660668
0.000773677
0.000905805
0.00105544
0.00121623
0.00137951
0.00153422
0.00166795
0.00176933
0.00182681
0.00183071
0.00177507
0.00165894
0.00148256
0.00125958
0.00101322
0.000767243
0.000543607
0.000358438
0.000218934
0.000123254
6.43162e-05
3.1623e-05
1.26187e-05
3.74104e-06
1.18862e-06
4.71165e-07
1.60981e-07
3.87371e-08
9.38414e-09
2.24964e-09
5.36041e-10
1.24829e-10
2.65872e-11
5.4091e-12
9.38587e-13
)
;

boundaryField
{
    AXIS
    {
        type            empty;
    }
    OUTLET
    {
        type            inletOutlet;
        inletValue      uniform 0;
        value           nonuniform List<scalar> 
25
(
2.94978e-09
2.94694e-09
2.9343e-09
2.90972e-09
2.87507e-09
2.83267e-09
2.78521e-09
2.73575e-09
2.68768e-09
2.64468e-09
2.60794e-09
2.56831e-09
2.50681e-09
2.40409e-09
2.24342e-09
2.01466e-09
1.71881e-09
1.3718e-09
1.0048e-09
6.58727e-10
3.73237e-10
1.73104e-10
5.98248e-11
1.26419e-11
9.38587e-13
)
;
    }
    COFLOW
    {
        type            fixedValue;
        value           uniform 0;
    }
    PILOT
    {
        type            fixedValue;
        value           uniform 0.271;
    }
    FUEL
    {
        type            fixedValue;
        value           uniform 1;
    }
    WALL
    {
        type            zeroGradient;
    }
    front
    {
        type            wedge;
    }
    back
    {
        type            wedge;
    }
}


// ************************************************************************* //
