/*--------------------------------*- C++ -*----------------------------------*\
| =========                 |                                                 |
| \\      /  F ield         | OpenFOAM: The Open Source CFD Toolbox           |
|  \\    /   O peration     | Version:  2.4.x                                 |
|   \\  /    A nd           | Web:      www.OpenFOAM.org                      |
|    \\/     M anipulation  |                                                 |
\*---------------------------------------------------------------------------*/
FoamFile
{
    version     2.0;
    format      ascii;
    class       volScalarField;
    location    "0.1";
    object      alphat;
}
// * * * * * * * * * * * * * * * * * * * * * * * * * * * * * * * * * * * * * //

dimensions      [1 -1 -1 0 0 0 0];

internalField   nonuniform List<scalar> 
1250
(
0.0365544
0.0208667
0.0128069
0.00837509
0.00598265
0.00466745
0.00384793
0.00328628
0.00285666
0.00250602
0.00222128
0.00201136
0.00182733
0.00166982
0.00153367
0.00140725
0.00130882
0.00122544
0.0011513
0.00108397
0.00102256
0.000966988
0.000917334
0.00087644
0.000836795
0.000798571
0.000764501
0.00073383
0.00070655
0.00068214
0.000660449
0.000641012
0.0006244
0.000610752
0.000598812
0.000588719
0.000579857
0.000572202
0.000566562
0.000560337
0.000557154
0.000554632
0.000548574
0.000554287
0.000549358
0.000544312
0.000570019
0.000591238
0.000642127
0.000822573
0.0351341
0.0190103
0.011333
0.00736738
0.00534156
0.00424561
0.00356373
0.00308488
0.00269081
0.00238133
0.00213071
0.00193943
0.00177086
0.00162498
0.00149353
0.0013794
0.00128563
0.00120642
0.00113504
0.00107036
0.0010113
0.00095747
0.000909443
0.000870141
0.000833099
0.000795709
0.000762239
0.000732134
0.000705291
0.000681306
0.000659895
0.000640793
0.000624254
0.000610824
0.000599031
0.000589072
0.000580348
0.000572785
0.000567231
0.000561082
0.000557961
0.000555479
0.000549538
0.00055528
0.000550348
0.000545454
0.000571268
0.000592792
0.000644401
0.000826553
0.0312984
0.0148323
0.00838104
0.00555204
0.00424879
0.00353271
0.0030651
0.00268638
0.00239321
0.00215625
0.00196172
0.00180189
0.00165944
0.00153199
0.00142045
0.00132114
0.00123837
0.00116704
0.0011019
0.00104237
0.0009878
0.000937872
0.00089315
0.000856769
0.000823959
0.000789575
0.000757402
0.000728389
0.000702552
0.00067934
0.000658626
0.000640157
0.000623952
0.000610801
0.000599419
0.000589775
0.000581288
0.000573998
0.000568574
0.000562646
0.00055965
0.000557223
0.000551576
0.000557374
0.000552423
0.000547905
0.000574206
0.000596617
0.000649811
0.000835323
0.0229885
0.00902159
0.0051156
0.00380029
0.00321912
0.00280494
0.00252336
0.00227108
0.00207992
0.00190784
0.0017604
0.00163723
0.00152549
0.00142286
0.00132981
0.00124661
0.00117699
0.00111523
0.00105779
0.00100484
0.000956248
0.000911446
0.000871264
0.000838293
0.000808985
0.000781037
0.000750629
0.000723266
0.000698664
0.000676578
0.000656899
0.000639334
0.000623743
0.000610766
0.000599937
0.000590706
0.000582611
0.000575681
0.000570478
0.000564847
0.000562096
0.000559724
0.000554576
0.000560456
0.000555497
0.000551768
0.000578706
0.000602486
0.000658244
0.000848886
0.0101657
0.00385079
0.00306875
0.00273282
0.00250007
0.00227504
0.00212282
0.00194959
0.0018062
0.00168163
0.00157685
0.00148185
0.00139417
0.0013128
0.00123663
0.00116739
0.00111041
0.00105775
0.00100853
0.000962745
0.000920577
0.000881499
0.000846069
0.00081679
0.000790869
0.000766504
0.000742545
0.000716879
0.000693879
0.000673239
0.00065474
0.000638157
0.000623436
0.000610668
0.000600379
0.000591735
0.000584126
0.000577667
0.000572744
0.000567524
0.000565113
0.000562826
0.000558358
0.000564339
0.000559395
0.00055689
0.000584887
0.000610018
0.000669836
0.00086724
0.00220913
0.00227113
0.00228085
0.00216743
0.00206341
0.00191482
0.00179775
0.0016813
0.00157754
0.00148941
0.00141601
0.00134539
0.00127818
0.00121095
0.00114792
0.00109114
0.00104452
0.00100038
0.000958651
0.000919686
0.000883733
0.000850207
0.000819559
0.00079378
0.000771274
0.000750025
0.000729882
0.000709627
0.000688302
0.000669106
0.000652025
0.000636701
0.000622967
0.000610897
0.000600656
0.000592647
0.000585632
0.000579705
0.000575178
0.000570509
0.000568484
0.000566376
0.000562743
0.000568876
0.000563997
0.000563296
0.000592543
0.000618952
0.000685059
0.000890011
0.000828742
0.00149014
0.00174356
0.00177275
0.00175461
0.00164053
0.00155878
0.00147465
0.00139495
0.00132885
0.00127137
0.00121611
0.00116384
0.00111452
0.00106714
0.00102098
0.000982323
0.000945379
0.000910344
0.000877587
0.000847403
0.000818969
0.000792603
0.000770163
0.000750973
0.00073273
0.000715454
0.00069892
0.000681855
0.000664393
0.000648717
0.000634601
0.000621966
0.000610797
0.000601072
0.000593289
0.000586908
0.00058165
0.000577561
0.000573529
0.000571958
0.000570144
0.000567553
0.00057384
0.000569206
0.000570935
0.000601619
0.000629959
0.000704151
0.000915653
0.000338042
0.00103365
0.00133209
0.00143742
0.00146013
0.00140662
0.00135283
0.00129248
0.0012341
0.00118721
0.00114387
0.00110198
0.00106183
0.00102388
0.000988213
0.00095679
0.000924917
0.000894202
0.00086499
0.00083769
0.000812155
0.0007882
0.000765932
0.000746423
0.000730229
0.000714881
0.000700311
0.000686464
0.000673071
0.000658641
0.000644498
0.000631744
0.00062028
0.000610109
0.000601233
0.000593701
0.000587748
0.000583229
0.000579726
0.00057642
0.000575386
0.000573981
0.000572555
0.000579071
0.000574877
0.000579868
0.000611767
0.000643255
0.00072647
0.000944452
0.000341771
0.000753074
0.000996343
0.0011194
0.00118018
0.00118454
0.00115788
0.00112922
0.00109104
0.0010615
0.00102955
0.000998162
0.000967757
0.000939404
0.000913189
0.000890984
0.000869027
0.000843962
0.000820161
0.000797922
0.000777144
0.000757589
0.0007393
0.000722789
0.000709405
0.000696676
0.00068458
0.000673197
0.000662194
0.000651486
0.000639124
0.000627727
0.000617569
0.000608555
0.0006007
0.000593983
0.000588165
0.000584253
0.00058141
0.00057892
0.00057848
0.000577725
0.000577655
0.000584468
0.000581205
0.000590001
0.000622979
0.00065797
0.000752034
0.000976269
0.00064699
0.000682114
0.000765615
0.000857577
0.000929814
0.000963103
0.000968023
0.000964018
0.000943288
0.000928521
0.0009067
0.000887806
0.000868245
0.000848963
0.000831905
0.000820704
0.000807988
0.000790157
0.000772347
0.000755634
0.000740064
0.000725427
0.000711807
0.000699247
0.000688301
0.000678012
0.000668254
0.000659089
0.000650265
0.000641722
0.000632395
0.000622471
0.000613648
0.000605903
0.000599101
0.000593377
0.00058842
0.00058469
0.000582455
0.000580907
0.000581198
0.000581285
0.000582713
0.000589835
0.000587983
0.000601259
0.000634671
0.000673713
0.000781889
0.001009
0.00285309
0.00112627
0.00073616
0.000685237
0.000725654
0.000769077
0.000794781
0.000809612
0.000813463
0.000815579
0.00079924
0.000790807
0.000778299
0.000765861
0.000756076
0.000751469
0.000744792
0.000734552
0.000724121
0.000713747
0.00070344
0.000693405
0.000683875
0.000674747
0.000666284
0.000658452
0.000650995
0.000643823
0.000637007
0.000630523
0.000623741
0.000615416
0.000608175
0.000601763
0.000596279
0.000591622
0.000587744
0.000584888
0.000583045
0.000582374
0.000583522
0.000584637
0.000587724
0.000595377
0.000595588
0.000613859
0.000647691
0.000690909
0.000817191
0.00104317
0.00580836
0.00234438
0.00113318
0.000713533
0.000618341
0.000617463
0.0006388
0.000666265
0.000682362
0.000695799
0.000699716
0.000704795
0.000701566
0.000699164
0.000699375
0.00069442
0.000687276
0.000681151
0.000675725
0.000669901
0.000663963
0.000658059
0.000652204
0.000646377
0.000640856
0.000635839
0.000630965
0.000626225
0.000621555
0.000617031
0.00061218
0.000606036
0.000600539
0.000595743
0.000591694
0.000588378
0.000585687
0.000584113
0.00058326
0.000583523
0.000585466
0.000587872
0.000592943
0.000601495
0.000604836
0.000628498
0.000662993
0.000710136
0.000859274
0.00108158
0.00777171
0.00411543
0.00219597
0.00122416
0.000772764
0.000595848
0.000546293
0.000547147
0.000562075
0.000581415
0.000594819
0.00060635
0.000613439
0.000618874
0.000625232
0.0006252
0.000626184
0.000627993
0.000626981
0.000624907
0.000622646
0.000620338
0.000617494
0.000614321
0.00061141
0.000609294
0.000607056
0.00060473
0.000602294
0.000599827
0.000596997
0.000593005
0.000589601
0.000586765
0.000584502
0.00058277
0.000581694
0.00058157
0.000582162
0.000584019
0.000587253
0.000591208
0.000598382
0.000608408
0.000616393
0.000645777
0.00068231
0.000734915
0.000908363
0.00112567
0.008884
0.00587029
0.00373646
0.00235701
0.00147629
0.000952946
0.000673468
0.000549946
0.000505425
0.000496166
0.000501538
0.000512903
0.000524299
0.000534949
0.000545235
0.000552074
0.000558158
0.000565201
0.000568509
0.000570447
0.000573229
0.000575913
0.000576568
0.000576855
0.00057727
0.000578279
0.000578765
0.000578893
0.000578677
0.000578241
0.000576945
0.00057564
0.000574655
0.000573985
0.0005738
0.000574059
0.000574933
0.000576595
0.000579186
0.000583045
0.0005883
0.000594723
0.000604848
0.00061716
0.000631363
0.000665274
0.000702099
0.000767552
0.000969154
0.00117665
0.00952216
0.0072856
0.00536755
0.00385895
0.00272499
0.00189186
0.0013005
0.000911493
0.000677635
0.000550612
0.000493074
0.000470871
0.000467277
0.000470278
0.00047799
0.000486409
0.000494632
0.000503708
0.000510969
0.000516188
0.000521995
0.000527624
0.000530946
0.000534619
0.00053825
0.000542756
0.000545503
0.000547765
0.000549101
0.000550299
0.000551654
0.0005531
0.000554708
0.000556516
0.00055873
0.00056128
0.000564526
0.000568558
0.000573665
0.000580259
0.000588276
0.000597924
0.000611936
0.000628367
0.000650774
0.000686905
0.000726398
0.000814028
0.00103817
0.00123286
0.00990378
0.0083206
0.00678051
0.00540321
0.00421941
0.00322942
0.0024347
0.00180614
0.00133148
0.000989506
0.00075793
0.00061137
0.000529661
0.000482798
0.000459857
0.000451093
0.000449917
0.000453539
0.000459531
0.000465824
0.000472759
0.000479879
0.000485937
0.000491827
0.000497541
0.000502696
0.000505976
0.000510066
0.000513254
0.000517169
0.00052144
0.000525219
0.000529357
0.000533865
0.000538784
0.000544173
0.000550432
0.000557466
0.000565806
0.000575838
0.000587521
0.000601555
0.000620625
0.00064432
0.000672348
0.000711772
0.000764806
0.000875955
0.00111339
0.0012888
0.0101392
0.0090371
0.00787114
0.00673048
0.00566152
0.00468753
0.00381753
0.00306418
0.00243211
0.00190517
0.00148853
0.00116589
0.00092308
0.000747734
0.000629586
0.000550935
0.000499304
0.000467762
0.000450325
0.000441999
0.000439533
0.000441167
0.00044438
0.000448639
0.000453536
0.000459038
0.000464024
0.000469305
0.000474183
0.000480415
0.000486399
0.00049229
0.00049931
0.000506672
0.000514735
0.000523514
0.000533363
0.00054436
0.000557078
0.000571709
0.000588307
0.00060836
0.000633416
0.000664583
0.000702029
0.000746809
0.000821241
0.000956021
0.00119011
0.00134395
0.0102861
0.00951033
0.00864442
0.0077451
0.00684872
0.00598208
0.00516303
0.00440344
0.0037106
0.00309489
0.0025709
0.00211582
0.00173024
0.00141295
0.00116395
0.000962159
0.000805167
0.000687257
0.000602292
0.000541216
0.000497927
0.000468293
0.000449214
0.000437856
0.000432155
0.000430269
0.000430584
0.000432862
0.00043647
0.000442247
0.000449417
0.000457481
0.000466783
0.000477311
0.000489088
0.000502072
0.000516819
0.000532636
0.000551
0.000571702
0.000595088
0.00062258
0.000655033
0.000695605
0.000744334
0.000804009
0.000895289
0.00104577
0.00124143
0.00139216
0.0103754
0.0097975
0.00913995
0.00843092
0.00769638
0.00695828
0.00623431
0.00553846
0.00488034
0.00426945
0.00370576
0.00319275
0.00274009
0.0023436
0.00199588
0.001694
0.00143562
0.00122137
0.0010428
0.000897945
0.000775481
0.000676779
0.000601469
0.000543403
0.000501003
0.000470372
0.000449086
0.000436109
0.000429645
0.000428986
0.000433073
0.00044078
0.000451246
0.00046414
0.000479235
0.000496359
0.000515931
0.000537577
0.000561904
0.000589342
0.000620007
0.000655316
0.000696491
0.00074565
0.000803788
0.000875844
0.000980338
0.00112601
0.00128776
0.00142259
0.0104186
0.00993423
0.00938789
0.0087908
0.00816566
0.0075298
0.00689688
0.00628659
0.00569572
0.00513416
0.00460482
0.00411
0.00365077
0.00322834
0.00284326
0.00250068
0.00219834
0.00192839
0.00168621
0.00147156
0.00128156
0.00111595
0.000973093
0.000851608
0.000754679
0.000672441
0.000605712
0.000558023
0.000523726
0.000502528
0.000492897
0.000492155
0.000497567
0.000508209
0.000522841
0.000541099
0.000562418
0.000587066
0.000614579
0.000645359
0.000679895
0.000719633
0.000765325
0.000818868
0.000882983
0.000959767
0.00106223
0.00119067
0.00132145
0.00141528
0.0104123
0.00991551
0.00936522
0.00878546
0.00819766
0.00761672
0.00705201
0.00650884
0.00599152
0.00550152
0.005037
0.00459923
0.00418636
0.00380194
0.00344351
0.00311061
0.00280445
0.00251989
0.00225669
0.00202048
0.00180181
0.00160168
0.0014198
0.00125643
0.00111391
0.000993018
0.000894476
0.000816757
0.000747133
0.000693821
0.000666405
0.000651865
0.00064597
0.000646714
0.000652868
0.000663685
0.000678555
0.00069748
0.000719982
0.000746254
0.000776867
0.000812341
0.000853443
0.000903563
0.000962763
0.00103371
0.00112258
0.00122677
0.00133611
0.0013309
0.0103187
0.00963759
0.00893221
0.00825582
0.00763036
0.00706065
0.00654312
0.00606705
0.00563302
0.00523345
0.0048504
0.00450257
0.00417418
0.00386407
0.00357244
0.00329711
0.0030345
0.0027836
0.0025438
0.00231516
0.00209811
0.00189312
0.00170128
0.00153001
0.00137325
0.00123696
0.00112603
0.00103472
0.000958018
0.000888978
0.000844803
0.000826891
0.000816199
0.000811417
0.000811554
0.000815851
0.000823693
0.000834782
0.000849089
0.000866917
0.000888449
0.00091416
0.000946205
0.000982761
0.00102831
0.00108387
0.00115445
0.00122978
0.00127138
0.00127129
0.00990196
0.00862033
0.007577
0.00674564
0.00610106
0.00558822
0.00515881
0.00480532
0.00450002
0.00422678
0.00397556
0.00374185
0.00352211
0.00331565
0.00311844
0.00292739
0.00273951
0.00255382
0.00236962
0.00218974
0.00201661
0.00185023
0.00168958
0.00153605
0.00139295
0.00126481
0.00115959
0.0010826
0.00101735
0.000956437
0.000917619
0.000906225
0.000900425
0.000898952
0.00090117
0.000906386
0.000914111
0.000924099
0.000936077
0.000950149
0.000967014
0.000984151
0.00100353
0.0010299
0.00106436
0.00110158
0.00113784
0.00117961
0.00122936
0.00129178
0.00742171
0.00519613
0.00422612
0.0036555
0.00331153
0.00304237
0.00284775
0.0027045
0.00258036
0.00246873
0.00236513
0.00226689
0.00217309
0.00208896
0.00201144
0.0019265
0.00182666
0.00172211
0.00161106
0.0015036
0.00142064
0.00133298
0.00124257
0.00115225
0.00106544
0.000985518
0.00091644
0.000865414
0.000828838
0.000797094
0.000783579
0.000788041
0.000792358
0.000798578
0.000809406
0.000820506
0.000830187
0.000842256
0.000858025
0.000873056
0.000890187
0.000909855
0.000918854
0.00092755
0.000935408
0.00094703
0.000943301
0.000942835
0.000929065
0.000947
0.000679133
0.00063126
0.00057458
0.000529051
0.000491797
0.00046201
0.000431503
0.000407692
0.000390635
0.000375183
0.000361066
0.000348038
0.000335902
0.000324521
0.000313774
0.000303452
0.00029336
0.000283388
0.000273457
0.000263626
0.000254037
0.000244749
0.000235908
0.000227726
0.000220434
0.000214231
0.000209236
0.000205451
0.000202747
0.000201004
0.000200153
0.000199978
0.000200262
0.000200893
0.000201802
0.00020294
0.000204268
0.000205771
0.000207412
0.000209114
0.000210865
0.000212522
0.000213949
0.000215226
0.000216216
0.00021693
0.000216893
0.00021689
0.000216035
0.000216314
)
;

boundaryField
{
    AXIS
    {
        type            empty;
    }
    OUTLET
    {
        type            calculated;
        value           nonuniform List<scalar> 
25
(
0.000822572
0.000826552
0.000835322
0.000848884
0.000867238
0.000890009
0.00091565
0.000944449
0.000976266
0.00100899
0.00104316
0.00108157
0.00112566
0.00117664
0.00123285
0.00128879
0.00134394
0.00139214
0.00142257
0.00141527
0.00133088
0.00127128
0.00129176
0.000946992
0.000216312
)
;
    }
    COFLOW
    {
        type            calculated;
        value           nonuniform List<scalar> 
15
(
0.0106224
0.0106225
0.0106223
0.0106223
0.0106223
0.0106222
0.0106222
0.0106222
0.0106222
0.0106222
0.0106222
0.0106222
0.0106222
0.0106222
0.0106222
)
;
    }
    PILOT
    {
        type            calculated;
        value           nonuniform List<scalar> 5(0.00141093 0.00141096 0.00141108 0.00141112 0.00141116);
    }
    FUEL
    {
        type            calculated;
        value           nonuniform List<scalar> 5(0.0472853 0.0472839 0.0472897 0.0473066 0.0473171);
    }
    WALL
    {
        type            compressible::alphatWallFunction;
        Prt             0.85;
        value           nonuniform List<scalar> 
50
(
9.62132e-05
8.91135e-05
8.062e-05
7.37195e-05
6.80147e-05
6.34099e-05
5.86513e-05
5.49012e-05
5.219e-05
4.97152e-05
4.74368e-05
4.53182e-05
4.33293e-05
4.14501e-05
3.96626e-05
3.79335e-05
3.62314e-05
3.45383e-05
3.28407e-05
3.11467e-05
2.94789e-05
2.7846e-05
2.62718e-05
2.47907e-05
2.34421e-05
2.22599e-05
2.12672e-05
2.04677e-05
1.98442e-05
1.93831e-05
1.90785e-05
1.89021e-05
1.88262e-05
1.88403e-05
1.89398e-05
1.91228e-05
1.9386e-05
1.97273e-05
2.01408e-05
2.06055e-05
2.11161e-05
2.16329e-05
2.21247e-05
2.25888e-05
2.29881e-05
2.33132e-05
2.3477e-05
2.36026e-05
2.35413e-05
2.36515e-05
)
;
    }
    front
    {
        type            wedge;
    }
    back
    {
        type            wedge;
    }
}


// ************************************************************************* //
