/*--------------------------------*- C++ -*----------------------------------*\
| =========                 |                                                 |
| \\      /  F ield         | OpenFOAM: The Open Source CFD Toolbox           |
|  \\    /   O peration     | Version:  2.4.x                                 |
|   \\  /    A nd           | Web:      www.OpenFOAM.org                      |
|    \\/     M anipulation  |                                                 |
\*---------------------------------------------------------------------------*/
FoamFile
{
    version     2.0;
    format      ascii;
    class       volScalarField;
    location    "0.1";
    object      C;
}
// * * * * * * * * * * * * * * * * * * * * * * * * * * * * * * * * * * * * * //

dimensions      [0 0 0 0 0 0 0];

internalField   nonuniform List<scalar> 
1250
(
1.0327e-11
4.6825e-11
1.21386e-10
2.75481e-10
5.70252e-10
1.05025e-09
1.73239e-09
2.60546e-09
3.63167e-09
4.88966e-09
6.18294e-09
7.29337e-09
8.37715e-09
9.36159e-09
1.03113e-08
1.116e-08
1.16703e-08
1.18011e-08
1.18959e-08
1.20014e-08
1.2143e-08
1.17605e-08
1.07473e-08
1.05235e-08
1.10814e-08
1.15306e-08
1.1557e-08
1.09405e-08
1.06994e-08
1.08197e-08
1.1077e-08
1.12601e-08
1.12149e-08
1.10372e-08
1.0985e-08
1.11066e-08
1.12685e-08
1.14808e-08
1.17399e-08
1.20387e-08
1.24458e-08
1.29007e-08
1.34023e-08
1.38807e-08
1.43908e-08
1.50001e-08
1.53402e-08
1.58802e-08
1.70767e-08
1.67489e-08
1.17118e-11
5.47653e-11
1.46714e-10
3.45767e-10
7.23571e-10
1.31652e-09
2.1297e-09
3.1169e-09
4.35603e-09
5.71026e-09
7.04934e-09
8.198e-09
9.27123e-09
1.027e-08
1.12108e-08
1.20041e-08
1.24545e-08
1.25509e-08
1.26049e-08
1.27207e-08
1.26903e-08
1.19181e-08
1.12108e-08
1.13329e-08
1.18336e-08
1.22115e-08
1.18501e-08
1.12879e-08
1.11217e-08
1.12798e-08
1.15102e-08
1.16362e-08
1.16334e-08
1.14508e-08
1.1408e-08
1.15111e-08
1.16553e-08
1.18491e-08
1.20897e-08
1.23806e-08
1.27805e-08
1.32168e-08
1.36983e-08
1.4159e-08
1.46557e-08
1.52489e-08
1.55478e-08
1.60537e-08
1.72027e-08
1.67064e-08
1.59533e-11
8.11845e-11
2.43567e-10
6.16313e-10
1.27675e-09
2.20488e-09
3.3995e-09
4.84681e-09
6.36843e-09
7.91031e-09
9.30487e-09
1.04626e-08
1.15247e-08
1.25003e-08
1.33209e-08
1.40209e-08
1.43123e-08
1.42974e-08
1.42939e-08
1.41953e-08
1.35606e-08
1.27554e-08
1.27619e-08
1.32654e-08
1.35953e-08
1.33877e-08
1.25268e-08
1.20964e-08
1.20878e-08
1.23126e-08
1.24839e-08
1.24683e-08
1.25211e-08
1.23621e-08
1.2349e-08
1.24025e-08
1.2503e-08
1.26552e-08
1.28483e-08
1.31289e-08
1.3509e-08
1.39021e-08
1.43395e-08
1.47591e-08
1.52289e-08
1.57819e-08
1.5961e-08
1.63942e-08
1.74214e-08
1.66109e-08
2.88201e-11
1.84589e-10
6.88387e-10
1.72137e-09
3.23838e-09
5.12832e-09
7.06539e-09
8.98656e-09
1.07415e-08
1.24022e-08
1.37059e-08
1.47427e-08
1.56211e-08
1.63694e-08
1.69821e-08
1.74718e-08
1.74486e-08
1.72493e-08
1.6832e-08
1.59058e-08
1.52737e-08
1.53828e-08
1.61776e-08
1.6537e-08
1.56884e-08
1.438e-08
1.37661e-08
1.36438e-08
1.38219e-08
1.39442e-08
1.38355e-08
1.37803e-08
1.3825e-08
1.38598e-08
1.3778e-08
1.37511e-08
1.37764e-08
1.38481e-08
1.39992e-08
1.42564e-08
1.45827e-08
1.49036e-08
1.52827e-08
1.56423e-08
1.60611e-08
1.65132e-08
1.65302e-08
1.68762e-08
1.77224e-08
1.64395e-08
1.08984e-10
1.14582e-09
3.8905e-09
7.56152e-09
1.08764e-08
1.37308e-08
1.59081e-08
1.78871e-08
1.94153e-08
2.0729e-08
2.1408e-08
2.19057e-08
2.22797e-08
2.25537e-08
2.26968e-08
2.27302e-08
2.20466e-08
2.10068e-08
2.01152e-08
1.97159e-08
2.00008e-08
2.05521e-08
2.056e-08
1.89134e-08
1.73686e-08
1.63965e-08
1.61966e-08
1.629e-08
1.61429e-08
1.58781e-08
1.56825e-08
1.56206e-08
1.57548e-08
1.58546e-08
1.56651e-08
1.55152e-08
1.54082e-08
1.54078e-08
1.55246e-08
1.57204e-08
1.59434e-08
1.61707e-08
1.64848e-08
1.67611e-08
1.70897e-08
1.736e-08
1.71953e-08
1.74328e-08
1.80126e-08
1.6179e-08
9.83274e-09
1.91893e-08
2.11114e-08
2.27294e-08
2.41738e-08
2.54922e-08
2.65582e-08
2.76877e-08
2.88528e-08
2.99855e-08
3.06222e-08
3.13191e-08
3.20785e-08
3.15435e-08
3.08118e-08
3.00643e-08
2.84985e-08
2.75827e-08
2.71357e-08
2.67857e-08
2.56586e-08
2.432e-08
2.29276e-08
2.16534e-08
2.1117e-08
2.07366e-08
1.99785e-08
1.91831e-08
1.86706e-08
1.82949e-08
1.82746e-08
1.81937e-08
1.81161e-08
1.80545e-08
1.78951e-08
1.75476e-08
1.73662e-08
1.73214e-08
1.73468e-08
1.74107e-08
1.75065e-08
1.76508e-08
1.78854e-08
1.80184e-08
1.81719e-08
1.82308e-08
1.7904e-08
1.79765e-08
1.82086e-08
1.58036e-08
5.69649e-08
5.16704e-08
4.62019e-08
4.34701e-08
4.20967e-08
4.19549e-08
4.14601e-08
4.12529e-08
4.12703e-08
4.11339e-08
4.08493e-08
4.07968e-08
4.092e-08
4.12151e-08
4.14034e-08
3.9586e-08
3.76578e-08
3.56997e-08
3.3703e-08
3.1693e-08
3.05084e-08
2.96521e-08
2.91251e-08
2.79017e-08
2.6365e-08
2.49266e-08
2.36421e-08
2.2722e-08
2.2141e-08
2.17349e-08
2.13599e-08
2.1054e-08
2.07629e-08
2.04384e-08
2.01646e-08
1.9871e-08
1.96113e-08
1.94284e-08
1.92853e-08
1.92137e-08
1.92146e-08
1.92687e-08
1.93373e-08
1.92028e-08
1.91795e-08
1.90738e-08
1.85226e-08
1.84155e-08
1.82518e-08
1.53475e-08
2.83315e-08
5.9966e-08
6.13817e-08
6.04232e-08
5.87022e-08
5.80749e-08
5.68849e-08
5.57231e-08
5.47247e-08
5.37308e-08
5.27872e-08
5.20465e-08
5.15469e-08
5.12621e-08
5.12138e-08
5.12626e-08
4.83791e-08
4.55608e-08
4.30268e-08
4.07286e-08
3.86133e-08
3.66773e-08
3.48811e-08
3.32272e-08
3.15937e-08
2.9975e-08
2.8523e-08
2.71941e-08
2.60472e-08
2.5251e-08
2.46378e-08
2.40634e-08
2.35405e-08
2.30813e-08
2.2666e-08
2.22639e-08
2.1837e-08
2.14754e-08
2.12259e-08
2.10746e-08
2.09308e-08
2.07624e-08
2.05417e-08
2.02473e-08
2.00962e-08
1.97129e-08
1.89623e-08
1.86458e-08
1.8079e-08
1.4914e-08
8.04328e-09
4.16189e-08
5.08865e-08
5.98165e-08
6.44902e-08
6.65036e-08
6.72051e-08
6.66821e-08
6.59212e-08
6.49928e-08
6.39087e-08
6.29185e-08
6.20502e-08
6.13095e-08
6.07443e-08
6.02806e-08
5.90359e-08
5.53721e-08
5.20417e-08
4.89894e-08
4.62133e-08
4.36788e-08
4.13398e-08
3.91843e-08
3.70695e-08
3.51695e-08
3.34417e-08
3.18106e-08
3.03084e-08
2.88849e-08
2.79772e-08
2.71689e-08
2.64421e-08
2.57586e-08
2.50653e-08
2.44382e-08
2.38719e-08
2.34456e-08
2.30588e-08
2.26751e-08
2.22351e-08
2.18958e-08
2.15359e-08
2.10253e-08
2.06699e-08
2.00333e-08
1.91073e-08
1.86122e-08
1.76764e-08
1.42649e-08
1.31598e-09
9.03259e-09
2.62001e-08
4.12351e-08
5.35525e-08
6.19282e-08
6.70278e-08
6.95898e-08
7.13516e-08
7.21371e-08
7.22183e-08
7.16158e-08
6.95888e-08
6.71114e-08
6.50447e-08
6.4472e-08
6.41393e-08
6.14402e-08
5.84534e-08
5.54976e-08
5.2603e-08
4.9818e-08
4.71464e-08
4.4613e-08
4.22135e-08
3.99533e-08
3.78509e-08
3.59657e-08
3.42013e-08
3.24847e-08
3.1046e-08
3.00054e-08
2.90432e-08
2.81595e-08
2.73497e-08
2.65291e-08
2.57236e-08
2.48554e-08
2.42446e-08
2.37436e-08
2.32076e-08
2.26573e-08
2.20783e-08
2.14008e-08
2.08728e-08
1.99938e-08
1.89633e-08
1.82929e-08
1.70477e-08
1.34556e-08
6.11853e-11
8.20869e-10
4.73763e-09
1.83099e-08
3.28312e-08
4.5488e-08
5.52285e-08
6.20914e-08
6.69534e-08
6.98937e-08
7.26107e-08
7.38584e-08
7.4476e-08
7.48149e-08
7.47429e-08
7.47867e-08
7.44029e-08
7.0661e-08
6.6562e-08
6.26491e-08
5.89293e-08
5.5423e-08
5.21145e-08
4.90098e-08
4.63384e-08
4.39259e-08
4.16429e-08
3.94971e-08
3.74794e-08
3.55476e-08
3.37197e-08
3.24889e-08
3.12206e-08
3.00198e-08
2.89263e-08
2.79181e-08
2.6925e-08
2.59845e-08
2.5016e-08
2.42617e-08
2.35717e-08
2.28743e-08
2.21253e-08
2.13126e-08
2.06235e-08
1.95297e-08
1.84353e-08
1.76475e-08
1.63666e-08
1.26151e-08
2.55373e-11
1.38773e-10
6.06399e-10
2.68469e-09
9.6449e-09
2.2891e-08
3.50323e-08
4.51483e-08
5.32157e-08
5.92753e-08
6.36526e-08
6.67591e-08
6.90302e-08
7.04598e-08
7.17171e-08
7.3555e-08
7.3374e-08
7.05431e-08
6.73288e-08
6.40175e-08
6.06633e-08
5.7358e-08
5.41596e-08
5.10787e-08
4.83726e-08
4.60151e-08
4.37068e-08
4.146e-08
3.92845e-08
3.71822e-08
3.51557e-08
3.36875e-08
3.23294e-08
3.10314e-08
2.97883e-08
2.8596e-08
2.74606e-08
2.63379e-08
2.52648e-08
2.42358e-08
2.32698e-08
2.24628e-08
2.15658e-08
2.06374e-08
1.98068e-08
1.85708e-08
1.74845e-08
1.66497e-08
1.54628e-08
1.15248e-08
1.17753e-11
5.03739e-11
1.31733e-10
3.92122e-10
1.29236e-09
3.85548e-09
9.9043e-09
1.90195e-08
2.92917e-08
3.90956e-08
4.70608e-08
5.26813e-08
5.72084e-08
5.99092e-08
6.13785e-08
6.23015e-08
6.21726e-08
6.14206e-08
6.01493e-08
5.82942e-08
5.62036e-08
5.39046e-08
5.15197e-08
4.90875e-08
4.67908e-08
4.47653e-08
4.27061e-08
4.06402e-08
3.85878e-08
3.65676e-08
3.46065e-08
3.32333e-08
3.19e-08
3.0582e-08
2.92997e-08
2.8062e-08
2.68615e-08
2.56934e-08
2.45625e-08
2.34492e-08
2.23596e-08
2.12966e-08
2.02438e-08
1.92446e-08
1.82968e-08
1.70741e-08
1.61943e-08
1.5417e-08
1.3867e-08
1.01718e-08
6.45634e-12
2.53723e-11
5.46518e-11
1.08501e-10
2.35474e-10
5.56844e-10
1.36289e-09
3.13936e-09
6.43588e-09
1.1593e-08
1.76145e-08
2.36935e-08
2.92297e-08
3.39182e-08
3.77043e-08
4.07043e-08
4.28176e-08
4.43019e-08
4.49314e-08
4.49878e-08
4.46901e-08
4.39052e-08
4.28321e-08
4.15041e-08
4.00523e-08
3.86594e-08
3.72238e-08
3.57205e-08
3.41574e-08
3.25606e-08
3.13472e-08
3.0231e-08
2.91043e-08
2.79787e-08
2.6841e-08
2.57138e-08
2.45966e-08
2.34991e-08
2.24045e-08
2.13376e-08
2.02966e-08
1.9334e-08
1.83243e-08
1.72926e-08
1.62579e-08
1.50396e-08
1.42177e-08
1.34124e-08
1.20367e-08
8.4929e-09
4.04939e-12
1.50539e-11
2.99798e-11
5.15923e-11
8.45586e-11
1.41677e-10
2.51349e-10
4.78742e-10
9.46966e-10
1.84666e-09
3.35843e-09
5.47034e-09
8.03232e-09
1.12086e-08
1.44483e-08
1.75437e-08
2.03737e-08
2.28227e-08
2.48238e-08
2.65009e-08
2.77672e-08
2.84047e-08
2.88504e-08
2.88333e-08
2.86271e-08
2.82363e-08
2.76737e-08
2.69751e-08
2.63927e-08
2.58188e-08
2.51995e-08
2.45603e-08
2.38634e-08
2.31123e-08
2.22863e-08
2.1441e-08
2.05561e-08
1.9645e-08
1.87294e-08
1.78125e-08
1.68911e-08
1.59909e-08
1.50937e-08
1.42418e-08
1.33994e-08
1.25112e-08
1.18936e-08
1.10204e-08
9.78526e-09
6.81939e-09
2.72755e-12
9.72686e-12
1.85548e-11
2.97844e-11
4.45569e-11
6.47977e-11
9.257e-11
1.36041e-10
2.06941e-10
3.29014e-10
5.36557e-10
8.65785e-10
1.38485e-09
2.1484e-09
3.17246e-09
4.43369e-09
5.87372e-09
7.42118e-09
8.99457e-09
1.05092e-08
1.19191e-08
1.31783e-08
1.42758e-08
1.5077e-08
1.56588e-08
1.61161e-08
1.65293e-08
1.68918e-08
1.7079e-08
1.71291e-08
1.70462e-08
1.68905e-08
1.66559e-08
1.63511e-08
1.59631e-08
1.55214e-08
1.50145e-08
1.44737e-08
1.38978e-08
1.32863e-08
1.26617e-08
1.2021e-08
1.13656e-08
1.07196e-08
1.01047e-08
9.47454e-09
8.96891e-09
8.21242e-09
7.34923e-09
5.08309e-09
1.90137e-12
6.58609e-12
1.22692e-11
1.90938e-11
2.7325e-11
3.74032e-11
5.00382e-11
6.59642e-11
8.6194e-11
1.14253e-10
1.49143e-10
1.96815e-10
2.67942e-10
3.74569e-10
5.33345e-10
7.64202e-10
1.08863e-09
1.5253e-09
2.07566e-09
2.72682e-09
3.43411e-09
4.14499e-09
4.86865e-09
5.57117e-09
6.21832e-09
6.8217e-09
7.37215e-09
7.85242e-09
8.26079e-09
8.60487e-09
8.896e-09
9.11192e-09
9.25129e-09
9.31486e-09
9.28842e-09
9.19571e-09
9.0418e-09
8.84369e-09
8.60188e-09
8.32423e-09
8.02938e-09
7.70317e-09
7.36963e-09
7.02939e-09
6.71601e-09
6.39255e-09
6.08565e-09
5.65211e-09
5.04518e-09
3.46067e-09
1.34278e-12
4.56353e-12
8.38324e-12
1.2847e-11
1.80285e-11
2.40426e-11
3.10606e-11
3.93305e-11
4.92086e-11
6.01746e-11
7.03989e-11
8.27019e-11
9.79124e-11
1.17242e-10
1.42867e-10
1.76919e-10
2.24827e-10
2.8993e-10
3.73108e-10
4.79928e-10
6.17681e-10
7.9083e-10
9.99293e-10
1.24137e-09
1.51175e-09
1.80254e-09
2.10204e-09
2.40989e-09
2.72785e-09
3.05687e-09
3.33905e-09
3.57827e-09
3.77924e-09
3.95312e-09
4.09728e-09
4.20004e-09
4.2663e-09
4.29973e-09
4.29647e-09
4.26246e-09
4.20824e-09
4.12881e-09
4.04546e-09
3.94886e-09
3.85488e-09
3.75404e-09
3.6673e-09
3.49282e-09
3.13577e-09
2.05782e-09
9.46604e-13
3.18093e-12
5.7989e-12
8.82146e-12
1.2275e-11
1.61957e-11
2.06337e-11
2.56558e-11
3.10533e-11
3.59977e-11
4.12192e-11
4.67664e-11
5.24771e-11
5.85995e-11
6.55628e-11
7.35755e-11
8.29364e-11
9.33897e-11
1.05048e-10
1.18913e-10
1.37455e-10
1.59956e-10
1.89416e-10
2.25359e-10
2.72185e-10
3.29927e-10
3.9931e-10
4.81794e-10
5.76257e-10
6.80571e-10
7.91724e-10
9.09533e-10
1.02531e-09
1.13638e-09
1.24742e-09
1.34957e-09
1.45171e-09
1.54528e-09
1.6256e-09
1.70284e-09
1.76786e-09
1.81874e-09
1.86301e-09
1.89619e-09
1.92576e-09
1.9433e-09
1.956e-09
1.89117e-09
1.66011e-09
1.03098e-09
6.57008e-13
2.19682e-12
3.99477e-12
6.06566e-12
8.42402e-12
1.10847e-11
1.40651e-11
1.69965e-11
1.99187e-11
2.28965e-11
2.59071e-11
2.89324e-11
3.19665e-11
3.50087e-11
3.80676e-11
4.10925e-11
4.37712e-11
4.57115e-11
4.75704e-11
4.93675e-11
5.10813e-11
5.3441e-11
5.61664e-11
5.91536e-11
6.31468e-11
6.8895e-11
7.55275e-11
8.58541e-11
9.91713e-11
1.19683e-10
1.42782e-10
1.72622e-10
2.05319e-10
2.44328e-10
2.85766e-10
3.32407e-10
3.79969e-10
4.33792e-10
4.8762e-10
5.42487e-10
5.99767e-10
6.54862e-10
7.09775e-10
7.63649e-10
8.15666e-10
8.65524e-10
9.02954e-10
8.71018e-10
7.40729e-10
4.04485e-10
4.4077e-13
1.47643e-12
2.69296e-12
4.10393e-12
5.66011e-12
7.32702e-12
9.09902e-12
1.09477e-11
1.28419e-11
1.47509e-11
1.66463e-11
1.84998e-11
2.02885e-11
2.19918e-11
2.3593e-11
2.4915e-11
2.55422e-11
2.58623e-11
2.58482e-11
2.55413e-11
2.49039e-11
2.39045e-11
2.25222e-11
2.07435e-11
1.86213e-11
1.98166e-11
2.14856e-11
2.33663e-11
2.56094e-11
2.93151e-11
3.40321e-11
3.97842e-11
4.79827e-11
5.75298e-11
6.9356e-11
8.36967e-11
9.96705e-11
1.19358e-10
1.41131e-10
1.64385e-10
1.9104e-10
2.19729e-10
2.49651e-10
2.82681e-10
3.1531e-10
3.42751e-10
3.49521e-10
3.27266e-10
2.57319e-10
1.1599e-10
2.646e-13
8.95017e-13
1.63965e-12
2.4986e-12
3.46455e-12
4.52407e-12
5.65907e-12
6.84808e-12
8.06761e-12
9.29257e-12
1.04994e-11
1.1664e-11
1.27627e-11
1.37743e-11
1.44875e-11
1.48285e-11
1.49192e-11
1.4731e-11
1.42328e-11
1.33916e-11
1.21661e-11
1.05141e-11
8.39153e-12
8.32526e-12
8.2756e-12
8.16587e-12
8.04651e-12
7.97955e-12
8.04562e-12
8.57461e-12
9.68982e-12
1.13178e-11
1.35163e-11
1.66265e-11
2.06867e-11
2.55222e-11
3.11594e-11
3.81353e-11
4.61615e-11
5.4962e-11
6.44975e-11
7.44554e-11
8.42973e-11
9.41008e-11
1.06947e-10
1.14025e-10
1.13868e-10
9.90098e-11
6.5782e-11
2.92831e-11
1.31198e-13
4.66511e-13
8.83286e-13
1.38006e-12
1.95033e-12
2.58374e-12
3.26788e-12
3.98817e-12
4.72827e-12
5.47108e-12
6.1988e-12
6.89449e-12
7.44631e-12
7.81284e-12
8.03082e-12
8.07666e-12
7.92582e-12
7.55084e-12
6.92162e-12
6.005e-12
4.76776e-12
4.33389e-12
4.08e-12
3.74927e-12
3.34999e-12
2.89992e-12
2.45532e-12
2.11446e-12
1.84759e-12
1.74223e-12
1.90291e-12
2.37813e-12
3.17912e-12
4.40341e-12
6.08485e-12
8.16906e-12
1.06366e-11
1.34356e-11
1.64935e-11
1.97047e-11
2.29378e-11
2.58658e-11
2.81525e-11
2.92918e-11
3.25007e-11
3.43642e-11
3.16383e-11
2.45993e-11
1.50732e-11
6.92591e-12
3.90208e-14
1.71889e-13
3.68e-13
6.10561e-13
8.92918e-13
1.20876e-12
1.55299e-12
1.91774e-12
2.2664e-12
2.58642e-12
2.87291e-12
3.10996e-12
3.28104e-12
3.36955e-12
3.35788e-12
3.2258e-12
2.95037e-12
2.50819e-12
2.13563e-12
2.03817e-12
1.88439e-12
1.67891e-12
1.40483e-12
1.0725e-12
6.92296e-13
2.58515e-13
3.81875e-14
4.041e-14
4.38227e-14
4.86908e-14
5.6322e-14
7.2778e-14
9.12509e-14
1.11462e-13
8.73954e-13
1.86814e-12
3.02902e-12
4.30663e-12
5.59088e-12
6.73426e-12
7.72542e-12
8.40801e-12
8.7516e-12
8.41098e-12
7.67716e-12
7.82036e-12
6.51765e-12
4.58955e-12
2.60208e-12
1.16166e-12
1.36361e-15
2.52265e-14
5.67364e-14
8.35737e-14
1.07428e-13
1.24707e-13
1.34025e-13
1.55294e-13
1.84209e-13
2.10825e-13
2.33157e-13
2.49058e-13
2.56411e-13
2.53735e-13
2.40251e-13
2.11321e-13
1.62355e-13
9.04367e-14
8.30782e-15
8.24089e-15
8.04487e-15
7.71621e-15
7.2678e-15
6.74348e-15
6.20979e-15
5.75557e-15
5.5052e-15
5.57062e-15
6.00893e-15
6.87901e-15
8.23369e-15
1.004e-14
1.22227e-14
1.47041e-14
1.73712e-14
2.00658e-14
2.2598e-14
2.47593e-14
2.63056e-14
2.70158e-14
2.67354e-14
2.87536e-13
5.14999e-13
6.18842e-13
6.13368e-13
5.25256e-13
3.82769e-13
2.45939e-13
1.28918e-13
7.40673e-14
)
;

boundaryField
{
    AXIS
    {
        type            empty;
    }
    OUTLET
    {
        type            calculated;
        value           nonuniform List<scalar> 
25
(
1.67489e-08
1.67064e-08
1.66109e-08
1.64395e-08
1.6179e-08
1.58036e-08
1.53475e-08
1.4914e-08
1.42649e-08
1.34556e-08
1.26151e-08
1.15248e-08
1.01718e-08
8.4929e-09
6.81939e-09
5.08309e-09
3.46067e-09
2.05782e-09
1.03098e-09
4.04485e-10
1.1599e-10
2.92831e-11
6.92591e-12
1.16166e-12
7.40673e-14
)
;
    }
    COFLOW
    {
        type            calculated;
        value           uniform 0;
    }
    PILOT
    {
        type            calculated;
        value           uniform 6.26956e-19;
    }
    FUEL
    {
        type            calculated;
        value           uniform 0;
    }
    WALL
    {
        type            calculated;
        value           nonuniform List<scalar> 
50
(
1.36361e-15
2.52265e-14
5.67364e-14
8.35737e-14
1.07428e-13
1.24707e-13
1.34025e-13
1.55294e-13
1.84209e-13
2.10825e-13
2.33157e-13
2.49058e-13
2.56411e-13
2.53735e-13
2.40251e-13
2.11321e-13
1.62355e-13
9.04367e-14
8.30782e-15
8.24089e-15
8.04487e-15
7.71621e-15
7.2678e-15
6.74348e-15
6.20979e-15
5.75557e-15
5.5052e-15
5.57062e-15
6.00893e-15
6.87901e-15
8.23369e-15
1.004e-14
1.22227e-14
1.47041e-14
1.73712e-14
2.00658e-14
2.2598e-14
2.47593e-14
2.63056e-14
2.70158e-14
2.67354e-14
2.87536e-13
5.14999e-13
6.18842e-13
6.13368e-13
5.25256e-13
3.82769e-13
2.45939e-13
1.28918e-13
7.40673e-14
)
;
    }
    front
    {
        type            wedge;
    }
    back
    {
        type            wedge;
    }
}


// ************************************************************************* //
