/*--------------------------------*- C++ -*----------------------------------*\
| =========                 |                                                 |
| \\      /  F ield         | OpenFOAM: The Open Source CFD Toolbox           |
|  \\    /   O peration     | Version:  2.4.x                                 |
|   \\  /    A nd           | Web:      www.OpenFOAM.org                      |
|    \\/     M anipulation  |                                                 |
\*---------------------------------------------------------------------------*/
FoamFile
{
    version     2.0;
    format      ascii;
    class       volScalarField;
    location    "0.1";
    object      C2H;
}
// * * * * * * * * * * * * * * * * * * * * * * * * * * * * * * * * * * * * * //

dimensions      [0 0 0 0 0 0 0];

internalField   nonuniform List<scalar> 
1250
(
3.00184e-10
1.15681e-09
2.21083e-09
3.50905e-09
5.25402e-09
7.58471e-09
1.05754e-08
1.42134e-08
1.82196e-08
2.16722e-08
2.51794e-08
2.83944e-08
3.17801e-08
3.52756e-08
3.89051e-08
4.26697e-08
4.59504e-08
4.85631e-08
5.14369e-08
5.45046e-08
5.76032e-08
6.10323e-08
6.51154e-08
6.83862e-08
7.09054e-08
7.2655e-08
7.46553e-08
7.69901e-08
7.98528e-08
8.3106e-08
8.65708e-08
9.01449e-08
9.34855e-08
9.63648e-08
9.97791e-08
1.03585e-07
1.07648e-07
1.11997e-07
1.16469e-07
1.20954e-07
1.25241e-07
1.29294e-07
1.33036e-07
1.35868e-07
1.38326e-07
1.39964e-07
1.38981e-07
1.37448e-07
1.3188e-07
1.05106e-07
3.43104e-10
1.31423e-09
2.46441e-09
3.93201e-09
5.95188e-09
8.63995e-09
1.20402e-08
1.60374e-08
1.95377e-08
2.31126e-08
2.66699e-08
2.99472e-08
3.33562e-08
3.68827e-08
4.0539e-08
4.42897e-08
4.75009e-08
5.01263e-08
5.29968e-08
5.59867e-08
5.91033e-08
6.26574e-08
6.68946e-08
7.0321e-08
7.30606e-08
7.47163e-08
7.66154e-08
7.89663e-08
8.18286e-08
8.50329e-08
8.84187e-08
9.19244e-08
9.53548e-08
9.81811e-08
1.0151e-07
1.05212e-07
1.09186e-07
1.13425e-07
1.17772e-07
1.221e-07
1.26243e-07
1.30118e-07
1.33699e-07
1.36332e-07
1.38633e-07
1.40083e-07
1.38906e-07
1.37214e-07
1.31365e-07
1.04291e-07
4.75166e-10
1.7695e-09
3.24479e-09
5.30941e-09
8.21934e-09
1.19281e-08
1.58833e-08
1.93058e-08
2.29425e-08
2.67433e-08
3.03561e-08
3.36995e-08
3.71517e-08
4.07035e-08
4.43347e-08
4.80486e-08
5.10865e-08
5.36994e-08
5.64849e-08
5.93924e-08
6.2639e-08
6.64811e-08
7.10455e-08
7.43848e-08
7.73744e-08
7.92242e-08
8.09969e-08
8.33643e-08
8.62061e-08
8.92775e-08
9.24955e-08
9.58276e-08
9.93065e-08
1.02115e-07
1.05251e-07
1.08715e-07
1.12484e-07
1.16478e-07
1.20543e-07
1.24526e-07
1.28398e-07
1.31888e-07
1.35123e-07
1.37325e-07
1.39294e-07
1.40299e-07
1.38543e-07
1.36446e-07
1.29947e-07
1.02521e-07
8.65841e-10
2.97894e-09
5.66275e-09
9.72832e-09
1.42546e-08
1.79383e-08
2.17423e-08
2.56323e-08
2.95316e-08
3.34903e-08
3.7011e-08
4.03055e-08
4.36661e-08
4.71095e-08
5.06186e-08
5.41845e-08
5.69179e-08
5.93733e-08
6.20085e-08
6.50195e-08
6.86207e-08
7.28754e-08
7.72467e-08
8.01613e-08
8.28436e-08
8.60498e-08
8.79093e-08
9.02718e-08
9.28985e-08
9.56946e-08
9.86008e-08
1.01693e-07
1.04926e-07
1.07826e-07
1.10613e-07
1.13764e-07
1.17196e-07
1.20801e-07
1.24401e-07
1.27957e-07
1.31323e-07
1.34276e-07
1.36924e-07
1.38495e-07
1.39886e-07
1.40157e-07
1.37839e-07
1.35219e-07
1.27851e-07
9.9855e-08
2.58876e-09
8.48065e-09
1.54254e-08
2.04869e-08
2.51983e-08
2.95469e-08
3.34739e-08
3.7412e-08
4.11256e-08
4.47993e-08
4.77387e-08
5.06521e-08
5.36174e-08
5.66599e-08
5.98079e-08
6.30759e-08
6.5251e-08
6.75294e-08
7.03157e-08
7.36511e-08
7.72691e-08
8.10175e-08
8.47452e-08
8.73073e-08
9.00846e-08
9.37232e-08
9.75741e-08
9.95837e-08
1.01732e-07
1.0408e-07
1.06661e-07
1.09398e-07
1.12168e-07
1.14837e-07
1.17245e-07
1.19963e-07
1.22903e-07
1.25942e-07
1.28986e-07
1.31972e-07
1.34625e-07
1.36894e-07
1.38788e-07
1.39575e-07
1.40223e-07
1.39595e-07
1.36419e-07
1.33315e-07
1.24854e-07
9.64286e-08
4.4578e-08
3.96632e-08
3.82199e-08
3.95958e-08
4.18657e-08
4.45216e-08
4.74241e-08
5.07088e-08
5.41495e-08
5.76193e-08
6.06001e-08
6.38681e-08
6.73829e-08
6.98546e-08
7.23003e-08
7.48787e-08
7.66434e-08
7.8883e-08
8.15001e-08
8.43722e-08
8.72662e-08
9.03086e-08
9.36345e-08
9.67136e-08
9.99122e-08
1.03528e-07
1.07334e-07
1.10805e-07
1.12459e-07
1.14381e-07
1.16401e-07
1.18443e-07
1.20503e-07
1.22542e-07
1.24519e-07
1.26687e-07
1.28992e-07
1.31439e-07
1.33771e-07
1.35961e-07
1.37782e-07
1.39224e-07
1.40239e-07
1.40044e-07
1.39863e-07
1.38214e-07
1.34257e-07
1.30453e-07
1.20913e-07
9.24076e-08
1.31218e-07
7.99788e-08
6.61905e-08
6.22186e-08
6.1522e-08
6.30131e-08
6.4829e-08
6.71593e-08
6.98659e-08
7.2487e-08
7.50711e-08
7.79747e-08
8.1115e-08
8.44932e-08
8.78517e-08
8.9369e-08
9.07027e-08
9.23238e-08
9.42279e-08
9.64202e-08
9.90675e-08
1.02056e-07
1.05369e-07
1.08216e-07
1.10927e-07
1.1413e-07
1.17767e-07
1.21727e-07
1.24706e-07
1.25809e-07
1.27011e-07
1.28277e-07
1.29532e-07
1.30732e-07
1.31811e-07
1.33153e-07
1.3484e-07
1.36506e-07
1.38039e-07
1.39394e-07
1.40301e-07
1.40778e-07
1.4071e-07
1.39518e-07
1.38457e-07
1.35798e-07
1.30995e-07
1.26604e-07
1.16127e-07
8.80274e-08
1.08278e-07
9.42019e-08
8.28053e-08
7.9976e-08
7.90463e-08
8.06022e-08
8.23116e-08
8.42433e-08
8.64067e-08
8.87541e-08
9.1179e-08
9.37848e-08
9.66103e-08
9.96011e-08
1.02805e-07
1.0623e-07
1.0695e-07
1.0787e-07
1.09182e-07
1.10813e-07
1.1273e-07
1.14906e-07
1.17323e-07
1.19797e-07
1.2237e-07
1.25268e-07
1.28527e-07
1.32068e-07
1.35846e-07
1.37559e-07
1.37791e-07
1.38069e-07
1.38394e-07
1.38731e-07
1.38893e-07
1.38933e-07
1.39564e-07
1.40454e-07
1.41103e-07
1.41504e-07
1.41385e-07
1.40884e-07
1.39802e-07
1.37703e-07
1.35864e-07
1.31997e-07
1.26653e-07
1.21584e-07
1.10571e-07
8.32341e-08
3.50799e-08
7.57877e-08
7.40891e-08
8.07498e-08
8.64388e-08
9.05629e-08
9.44535e-08
9.7426e-08
1.00206e-07
1.03257e-07
1.06041e-07
1.08761e-07
1.11501e-07
1.14248e-07
1.17085e-07
1.20331e-07
1.22948e-07
1.23213e-07
1.23828e-07
1.24719e-07
1.25847e-07
1.27244e-07
1.28881e-07
1.30748e-07
1.3326e-07
1.35906e-07
1.38781e-07
1.4174e-07
1.44879e-07
1.48068e-07
1.4767e-07
1.46984e-07
1.46247e-07
1.45523e-07
1.44688e-07
1.43795e-07
1.42824e-07
1.4257e-07
1.42291e-07
1.41739e-07
1.40684e-07
1.39261e-07
1.37226e-07
1.34247e-07
1.31514e-07
1.26743e-07
1.20962e-07
1.15547e-07
1.04439e-07
7.76394e-08
7.18882e-09
3.04528e-08
4.67353e-08
6.30868e-08
7.70531e-08
8.78733e-08
9.59628e-08
1.02128e-07
1.08063e-07
1.13536e-07
1.18145e-07
1.21969e-07
1.24819e-07
1.27651e-07
1.30319e-07
1.33471e-07
1.3679e-07
1.37095e-07
1.37218e-07
1.37506e-07
1.3798e-07
1.38649e-07
1.39434e-07
1.40316e-07
1.42312e-07
1.44621e-07
1.47055e-07
1.49472e-07
1.51969e-07
1.54447e-07
1.55264e-07
1.53579e-07
1.51919e-07
1.50204e-07
1.48487e-07
1.46576e-07
1.44624e-07
1.42493e-07
1.41171e-07
1.39859e-07
1.38011e-07
1.35704e-07
1.32776e-07
1.29174e-07
1.25731e-07
1.20207e-07
1.14398e-07
1.08727e-07
9.798e-08
7.17805e-08
7.47751e-10
5.82395e-09
1.75107e-08
3.63936e-08
5.54617e-08
7.15637e-08
8.48047e-08
9.54569e-08
1.04359e-07
1.11872e-07
1.19571e-07
1.25739e-07
1.30883e-07
1.35409e-07
1.39351e-07
1.43397e-07
1.47041e-07
1.47302e-07
1.47034e-07
1.46817e-07
1.46683e-07
1.46663e-07
1.4673e-07
1.46909e-07
1.48277e-07
1.50259e-07
1.52178e-07
1.54087e-07
1.55986e-07
1.57762e-07
1.59295e-07
1.56792e-07
1.54191e-07
1.51663e-07
1.49081e-07
1.46517e-07
1.43808e-07
1.4109e-07
1.38051e-07
1.35594e-07
1.33002e-07
1.30015e-07
1.26406e-07
1.22328e-07
1.18339e-07
1.12327e-07
1.0667e-07
1.01102e-07
9.09848e-08
6.55784e-08
4.14143e-10
1.85657e-09
4.46705e-09
1.20909e-08
2.58074e-08
4.48334e-08
6.22038e-08
7.6506e-08
8.91372e-08
9.97851e-08
1.08402e-07
1.16028e-07
1.22566e-07
1.28103e-07
1.33592e-07
1.40386e-07
1.45162e-07
1.4679e-07
1.47539e-07
1.47994e-07
1.48211e-07
1.48325e-07
1.48389e-07
1.48418e-07
1.49254e-07
1.50944e-07
1.52493e-07
1.53924e-07
1.55248e-07
1.56493e-07
1.57654e-07
1.55109e-07
1.52013e-07
1.48944e-07
1.45818e-07
1.42614e-07
1.39395e-07
1.3599e-07
1.32536e-07
1.28928e-07
1.25291e-07
1.21833e-07
1.17704e-07
1.13308e-07
1.08922e-07
1.0284e-07
9.76564e-08
9.2532e-08
8.24516e-08
5.87146e-08
2.1277e-10
8.60536e-10
1.75748e-09
3.42722e-09
7.36573e-09
1.649e-08
2.84255e-08
4.3049e-08
5.86549e-08
7.34608e-08
8.632e-08
9.68809e-08
1.06097e-07
1.12861e-07
1.18583e-07
1.24018e-07
1.28193e-07
1.31592e-07
1.3444e-07
1.3671e-07
1.38379e-07
1.39675e-07
1.4071e-07
1.41546e-07
1.42567e-07
1.44129e-07
1.45504e-07
1.46713e-07
1.47754e-07
1.48677e-07
1.49288e-07
1.46245e-07
1.43152e-07
1.39959e-07
1.36665e-07
1.33323e-07
1.29873e-07
1.26274e-07
1.22593e-07
1.18747e-07
1.14788e-07
1.10704e-07
1.06335e-07
1.01889e-07
9.73445e-08
9.16594e-08
8.72144e-08
8.22043e-08
7.24539e-08
5.09944e-08
1.22731e-10
4.70168e-10
9.30396e-10
1.55643e-09
2.5935e-09
4.38953e-09
7.79301e-09
1.42009e-08
2.41496e-08
3.44857e-08
4.57824e-08
5.70736e-08
6.76224e-08
7.67195e-08
8.49815e-08
9.24045e-08
9.88874e-08
1.04416e-07
1.09238e-07
1.13196e-07
1.16521e-07
1.19515e-07
1.21993e-07
1.24022e-07
1.25677e-07
1.27318e-07
1.28805e-07
1.30122e-07
1.31263e-07
1.32235e-07
1.30688e-07
1.28324e-07
1.25796e-07
1.23149e-07
1.20262e-07
1.17255e-07
1.14094e-07
1.10803e-07
1.07324e-07
1.03741e-07
9.99821e-08
9.6077e-08
9.19066e-08
8.77435e-08
8.34614e-08
7.84946e-08
7.47359e-08
6.978e-08
6.12067e-08
4.28643e-08
7.83374e-11
2.86813e-10
5.5277e-10
8.91026e-10
1.31334e-09
1.88108e-09
2.70106e-09
4.00043e-09
6.16111e-09
9.7585e-09
1.52944e-08
2.25424e-08
3.08804e-08
3.82433e-08
4.57194e-08
5.30333e-08
6.00469e-08
6.66411e-08
7.27253e-08
7.84457e-08
8.36036e-08
8.80501e-08
9.21266e-08
9.55576e-08
9.81404e-08
1.00369e-07
1.02407e-07
1.04231e-07
1.04287e-07
1.03622e-07
1.02747e-07
1.01648e-07
1.00274e-07
9.86665e-08
9.6706e-08
9.46059e-08
9.22418e-08
8.96501e-08
8.68767e-08
8.39309e-08
8.08351e-08
7.76167e-08
7.42124e-08
7.08025e-08
6.7247e-08
6.34285e-08
6.05039e-08
5.59372e-08
4.91283e-08
3.44449e-08
5.27728e-11
1.86142e-10
3.48634e-10
5.42644e-10
7.74744e-10
1.05494e-09
1.3807e-09
1.80611e-09
2.37283e-09
3.17171e-09
4.29055e-09
5.77757e-09
7.91995e-09
1.08607e-08
1.46317e-08
1.91505e-08
2.42357e-08
2.96793e-08
3.5267e-08
4.07183e-08
4.59318e-08
5.0759e-08
5.5152e-08
5.83586e-08
6.10237e-08
6.32726e-08
6.51811e-08
6.6752e-08
6.79989e-08
6.88988e-08
6.9523e-08
6.98613e-08
6.98525e-08
6.95276e-08
6.8842e-08
6.79037e-08
6.66377e-08
6.51777e-08
6.34977e-08
6.15721e-08
5.95063e-08
5.72561e-08
5.48535e-08
5.23671e-08
4.99367e-08
4.74328e-08
4.52935e-08
4.1967e-08
3.72365e-08
2.63238e-08
3.64018e-11
1.25062e-10
2.30126e-10
3.51673e-10
4.90707e-10
6.49688e-10
8.33093e-10
1.04241e-09
1.27884e-09
1.56835e-09
1.8658e-09
2.20571e-09
2.64644e-09
3.23106e-09
4.02679e-09
5.10124e-09
6.53054e-09
8.37058e-09
1.06129e-08
1.32115e-08
1.59796e-08
1.87428e-08
2.14912e-08
2.41675e-08
2.67094e-08
2.91038e-08
3.13168e-08
3.33429e-08
3.51544e-08
3.67526e-08
3.81714e-08
3.93174e-08
4.02383e-08
4.0871e-08
4.12277e-08
4.1334e-08
4.11628e-08
4.07819e-08
4.01802e-08
3.9388e-08
3.84797e-08
3.73779e-08
3.6198e-08
3.49332e-08
3.3719e-08
3.24313e-08
3.12096e-08
2.93676e-08
2.63797e-08
1.87286e-08
2.52738e-11
8.53697e-11
1.55418e-10
2.35211e-10
3.24683e-10
4.24127e-10
5.34355e-10
6.56867e-10
7.94002e-10
9.34081e-10
1.04735e-09
1.16907e-09
1.30264e-09
1.45383e-09
1.63711e-09
1.85575e-09
2.14719e-09
2.51359e-09
2.97107e-09
3.53205e-09
4.22201e-09
5.05347e-09
6.01272e-09
7.09459e-09
8.28576e-09
9.54646e-09
1.08479e-08
1.21919e-08
1.34914e-08
1.4769e-08
1.60082e-08
1.71354e-08
1.81389e-08
1.90204e-08
1.97703e-08
2.03584e-08
2.08184e-08
2.11371e-08
2.13035e-08
2.13357e-08
2.12796e-08
2.11068e-08
2.09043e-08
2.06452e-08
2.03782e-08
2.00537e-08
1.9803e-08
1.91033e-08
1.72353e-08
1.21433e-08
1.74457e-11
5.83552e-11
1.05656e-10
1.59228e-10
2.18909e-10
2.84578e-10
3.56237e-10
4.34048e-10
5.13734e-10
5.81402e-10
6.47532e-10
7.11646e-10
7.7063e-10
8.26763e-10
8.83866e-10
9.42348e-10
1.0031e-09
1.07982e-09
1.16573e-09
1.25893e-09
1.38158e-09
1.51802e-09
1.69275e-09
1.89192e-09
2.14988e-09
2.45862e-09
2.81939e-09
3.23969e-09
3.70877e-09
4.22712e-09
4.78329e-09
5.37674e-09
5.96356e-09
6.53337e-09
7.13394e-09
7.69754e-09
8.22658e-09
8.70233e-09
9.11978e-09
9.5079e-09
9.85037e-09
1.01453e-08
1.04298e-08
1.06932e-08
1.09611e-08
1.12063e-08
1.14698e-08
1.13143e-08
1.01554e-08
6.90687e-09
1.18241e-11
3.93997e-11
7.12626e-11
1.07409e-10
1.47761e-10
1.92185e-10
2.40538e-10
2.86458e-10
3.30174e-10
3.72313e-10
4.12086e-10
4.48778e-10
4.81851e-10
5.10836e-10
5.35359e-10
5.54739e-10
5.71284e-10
5.86149e-10
5.97298e-10
6.04651e-10
6.07569e-10
6.14378e-10
6.20093e-10
6.22575e-10
6.29503e-10
6.4617e-10
6.62894e-10
7.05924e-10
7.72042e-10
9.11069e-10
1.06196e-09
1.26036e-09
1.47025e-09
1.71894e-09
1.97496e-09
2.25971e-09
2.54218e-09
2.87215e-09
3.1943e-09
3.51912e-09
3.85506e-09
4.21669e-09
4.5901e-09
4.96932e-09
5.35235e-09
5.72466e-09
6.03686e-09
5.93695e-09
5.27618e-09
3.30293e-09
7.73061e-12
2.5826e-11
4.69007e-11
7.10375e-11
9.72543e-11
1.24778e-10
1.53283e-10
1.8206e-10
2.10347e-10
2.374e-10
2.62514e-10
2.85002e-10
3.04265e-10
3.19756e-10
3.30979e-10
3.3813e-10
3.4234e-10
3.41589e-10
3.35462e-10
3.24655e-10
3.08053e-10
2.85091e-10
2.55335e-10
2.18445e-10
1.75122e-10
1.8539e-10
1.99946e-10
2.15832e-10
2.34118e-10
2.65296e-10
3.04342e-10
3.50731e-10
4.17117e-10
4.9189e-10
5.8293e-10
6.91276e-10
8.07788e-10
9.5126e-10
1.10516e-09
1.26384e-09
1.44254e-09
1.62788e-09
1.81325e-09
2.09107e-09
2.38492e-09
2.64373e-09
2.77147e-09
2.71231e-09
2.29472e-09
1.22739e-09
4.52233e-12
1.52643e-11
2.78601e-11
4.22267e-11
5.81344e-11
7.52326e-11
9.30799e-11
1.11169e-10
1.2896e-10
1.45885e-10
1.61397e-10
1.74962e-10
1.86043e-10
1.94152e-10
1.99578e-10
2.02088e-10
2.00689e-10
1.94946e-10
1.84387e-10
1.68499e-10
1.46647e-10
1.18165e-10
8.23414e-11
8.10728e-11
8.05505e-11
7.93716e-11
7.80284e-11
7.71027e-11
7.73578e-11
8.20381e-11
9.22244e-11
1.07042e-10
1.26849e-10
1.54816e-10
1.90953e-10
2.33127e-10
2.81178e-10
3.39905e-10
4.05894e-10
4.76115e-10
5.49824e-10
6.24061e-10
6.94711e-10
7.72748e-10
9.33682e-10
1.05122e-09
1.1175e-09
1.04013e-09
7.56106e-10
3.70684e-10
2.17491e-12
7.71391e-12
1.45372e-11
2.25607e-11
3.16047e-11
4.1417e-11
5.17031e-11
6.21299e-11
7.23336e-11
8.19341e-11
9.05381e-11
9.77658e-11
1.03591e-10
1.07699e-10
1.09476e-10
1.08569e-10
1.04606e-10
9.71678e-11
8.57882e-11
6.99533e-11
4.91403e-11
4.28599e-11
4.03045e-11
3.69836e-11
3.29779e-11
2.8463e-11
2.39999e-11
2.0586e-11
1.78605e-11
1.66995e-11
1.8142e-11
2.26536e-11
3.03e-11
4.19809e-11
5.7976e-11
7.76573e-11
1.00723e-10
1.26566e-10
1.54401e-10
1.83182e-10
2.1169e-10
2.37042e-10
2.56534e-10
2.65998e-10
3.22718e-10
3.74667e-10
3.69122e-10
3.03439e-10
1.94392e-10
9.15895e-11
6.17715e-13
2.70867e-12
5.73854e-12
9.39408e-12
1.35205e-11
1.79649e-11
2.25911e-11
2.72207e-11
3.1754e-11
3.59771e-11
3.96214e-11
4.2448e-11
4.42089e-11
4.46589e-11
4.35375e-11
4.05392e-11
3.5313e-11
2.75017e-11
2.12884e-11
2.03028e-11
1.87581e-11
1.66947e-11
1.39431e-11
1.06055e-11
6.78501e-12
2.42586e-12
2.08916e-13
2.20885e-13
2.39252e-13
2.65388e-13
3.06612e-13
3.97262e-13
4.9834e-13
6.08156e-13
8.09544e-12
1.78385e-11
2.91662e-11
4.1574e-11
5.39921e-11
6.50061e-11
7.45465e-11
8.11361e-11
8.44537e-11
8.12139e-11
7.55557e-11
8.74073e-11
7.78361e-11
5.70336e-11
3.29933e-11
1.48947e-11
2.0003e-14
3.56007e-13
7.81566e-13
1.10447e-12
1.34888e-12
1.45816e-12
1.40938e-12
1.56e-12
1.84861e-12
2.11344e-12
2.33463e-12
2.49071e-12
2.56057e-12
2.52952e-12
2.38996e-12
2.09543e-12
1.59986e-12
8.73855e-13
4.56421e-14
4.52851e-14
4.42201e-14
4.24263e-14
3.99725e-14
3.70978e-14
3.4167e-14
3.16685e-14
3.02863e-14
3.06354e-14
3.30276e-14
3.77809e-14
4.51762e-14
5.5021e-14
6.68934e-14
8.03577e-14
9.4793e-14
1.09341e-13
1.2298e-13
1.34602e-13
1.42912e-13
1.46744e-13
1.45277e-13
2.75249e-12
5.04109e-12
6.10801e-12
6.08732e-12
5.23564e-12
3.82898e-12
2.46668e-12
1.29475e-12
7.45908e-13
)
;

boundaryField
{
    AXIS
    {
        type            empty;
    }
    OUTLET
    {
        type            calculated;
        value           nonuniform List<scalar> 
25
(
1.05106e-07
1.04291e-07
1.02521e-07
9.9855e-08
9.64286e-08
9.24076e-08
8.80274e-08
8.32341e-08
7.76394e-08
7.17805e-08
6.55784e-08
5.87146e-08
5.09944e-08
4.28643e-08
3.44449e-08
2.63238e-08
1.87286e-08
1.21433e-08
6.90687e-09
3.30293e-09
1.22739e-09
3.70684e-10
9.15895e-11
1.48947e-11
7.45908e-13
)
;
    }
    COFLOW
    {
        type            calculated;
        value           uniform 0;
    }
    PILOT
    {
        type            calculated;
        value           uniform 1.02306e-19;
    }
    FUEL
    {
        type            calculated;
        value           uniform 0;
    }
    WALL
    {
        type            calculated;
        value           nonuniform List<scalar> 
50
(
2.0003e-14
3.56007e-13
7.81566e-13
1.10447e-12
1.34888e-12
1.45816e-12
1.40938e-12
1.56e-12
1.84861e-12
2.11344e-12
2.33463e-12
2.49071e-12
2.56057e-12
2.52952e-12
2.38996e-12
2.09543e-12
1.59986e-12
8.73855e-13
4.56421e-14
4.52851e-14
4.42201e-14
4.24263e-14
3.99725e-14
3.70978e-14
3.4167e-14
3.16685e-14
3.02863e-14
3.06354e-14
3.30276e-14
3.77809e-14
4.51762e-14
5.5021e-14
6.68934e-14
8.03577e-14
9.4793e-14
1.09341e-13
1.2298e-13
1.34602e-13
1.42912e-13
1.46744e-13
1.45277e-13
2.75249e-12
5.04109e-12
6.10801e-12
6.08732e-12
5.23564e-12
3.82898e-12
2.46668e-12
1.29475e-12
7.45908e-13
)
;
    }
    front
    {
        type            wedge;
    }
    back
    {
        type            wedge;
    }
}


// ************************************************************************* //
