/*--------------------------------*- C++ -*----------------------------------*\
| =========                 |                                                 |
| \\      /  F ield         | OpenFOAM: The Open Source CFD Toolbox           |
|  \\    /   O peration     | Version:  2.4.x                                 |
|   \\  /    A nd           | Web:      www.OpenFOAM.org                      |
|    \\/     M anipulation  |                                                 |
\*---------------------------------------------------------------------------*/
FoamFile
{
    version     2.0;
    format      ascii;
    class       volScalarField;
    location    "0.1";
    object      C2H2;
}
// * * * * * * * * * * * * * * * * * * * * * * * * * * * * * * * * * * * * * //

dimensions      [0 0 0 0 0 0 0];

internalField   nonuniform List<scalar> 
1250
(
5.38448e-05
0.000194369
0.000332058
0.000452803
0.000558489
0.000646552
0.000717251
0.000771869
0.000825794
0.000931376
0.00104371
0.00116845
0.00130294
0.00144734
0.00159531
0.00175487
0.00192384
0.00210354
0.00228883
0.00248137
0.00267798
0.00287801
0.00307776
0.00327762
0.00353444
0.00382735
0.00411836
0.00439939
0.00467198
0.0049254
0.00516192
0.00537472
0.00556998
0.00575235
0.00590745
0.00602749
0.00611005
0.00615629
0.00615675
0.00612058
0.00603266
0.00591353
0.00574715
0.00552828
0.00530496
0.00501055
0.00468149
0.00438107
0.00380705
0.00245973
6.31844e-05
0.000219778
0.00035995
0.000478667
0.000577292
0.000654542
0.000711671
0.000753346
0.000842629
0.000947344
0.00105914
0.00118294
0.00131837
0.00146058
0.00160907
0.00176969
0.00193903
0.00211771
0.00230395
0.00249572
0.00269219
0.00289104
0.00308964
0.00328808
0.00351594
0.00380891
0.00409733
0.00437776
0.00464693
0.00489832
0.00513156
0.00534134
0.00553008
0.00570949
0.00586098
0.00597747
0.00605739
0.00610008
0.0060982
0.00605915
0.00597016
0.00584909
0.00568279
0.00546464
0.00524274
0.00494965
0.00462513
0.00432738
0.00376078
0.00243203
9.29269e-05
0.000290869
0.000432066
0.000537012
0.000607646
0.000647671
0.000691912
0.000780418
0.000875632
0.000976216
0.00108795
0.00121161
0.00134525
0.00148596
0.00163873
0.00179952
0.00196924
0.00214828
0.00233446
0.00252585
0.00272119
0.0029176
0.00311346
0.0033077
0.00349984
0.00376692
0.00405172
0.00433037
0.00459321
0.00484083
0.00506752
0.0052712
0.0054479
0.00561913
0.00576193
0.00587029
0.00594478
0.00597867
0.00597289
0.00592701
0.00583728
0.00571206
0.00554569
0.00532898
0.00510986
0.00481923
0.00450349
0.00421284
0.00366293
0.00237121
0.000185255
0.000446684
0.000554896
0.000582285
0.000598462
0.000663944
0.000734925
0.000812398
0.000902191
0.00100039
0.00111347
0.00123658
0.00137223
0.00151812
0.00167323
0.0018348
0.00200727
0.00218736
0.00237442
0.00256527
0.00275805
0.00295131
0.00314027
0.00332919
0.00351556
0.00369694
0.00397979
0.00425133
0.00450876
0.0047483
0.00496612
0.00515899
0.00532812
0.00547918
0.00561089
0.00571078
0.0057744
0.00579983
0.0057859
0.00573437
0.00564007
0.00551194
0.00534363
0.00513056
0.00491443
0.0046288
0.00432637
0.00404653
0.00352049
0.00228387
0.000559763
0.00075903
0.000620258
0.000611974
0.000625011
0.000656639
0.000715226
0.000788793
0.000881782
0.000986226
0.00110834
0.00124119
0.00138428
0.00153586
0.00169665
0.00186467
0.00204197
0.00222609
0.00241361
0.00260361
0.00279224
0.00297897
0.00316151
0.00334207
0.0035222
0.00369593
0.00387631
0.0041422
0.00439039
0.00461865
0.00482541
0.00500947
0.00516641
0.00529471
0.00541438
0.00550079
0.00555274
0.00556747
0.00554505
0.0054871
0.00538669
0.00525682
0.00508671
0.0048795
0.0046675
0.00438893
0.0041045
0.0038372
0.00334283
0.00217566
0.00195489
0.000817079
0.000669333
0.000656583
0.000687724
0.000739349
0.000808916
0.00089014
0.000974886
0.00106245
0.00115956
0.00126174
0.00136724
0.00152894
0.00170256
0.00187886
0.00206438
0.00225167
0.00244013
0.00262816
0.00281158
0.00299113
0.00316514
0.00333796
0.00350878
0.00367345
0.00382805
0.00399944
0.00423774
0.00445657
0.00464922
0.00481758
0.0049614
0.00507868
0.00517202
0.00524691
0.00528518
0.00529023
0.00525805
0.00519158
0.00508726
0.00495505
0.00478601
0.00458557
0.00437991
0.00411121
0.00384745
0.00359694
0.00314069
0.00205384
0.00209504
0.00100809
0.000764654
0.000725958
0.000748349
0.000805176
0.000883086
0.000969268
0.00106051
0.00115602
0.00125805
0.00136202
0.00146623
0.00157039
0.00168303
0.00187089
0.00206336
0.00225457
0.00244324
0.00262825
0.00280551
0.00297795
0.00314468
0.00330604
0.00346635
0.00361902
0.00376184
0.00389346
0.00405285
0.00425609
0.00443557
0.00459071
0.00472022
0.00482392
0.00489848
0.0049528
0.00498028
0.00497341
0.00493348
0.00485974
0.00475259
0.00461956
0.00445251
0.00426145
0.00406348
0.00380711
0.00356833
0.00333497
0.00292312
0.00192106
0.00139559
0.00102938
0.000771046
0.000738621
0.000768074
0.00083725
0.000926512
0.00102229
0.0011209
0.00122424
0.00132898
0.0014333
0.0015363
0.00163668
0.0017342
0.0018334
0.00202935
0.00222273
0.00241058
0.00259164
0.00276549
0.00293101
0.0030878
0.00323745
0.00338712
0.00352587
0.00365496
0.00377299
0.00387845
0.0040274
0.00419052
0.0043293
0.00444413
0.00453444
0.0045966
0.00463324
0.00464639
0.00462866
0.00457978
0.0045011
0.0043925
0.00426116
0.00409886
0.00391899
0.0037292
0.00349008
0.00327585
0.00306327
0.0026988
0.00178032
0.000478976
0.000825958
0.000710809
0.000712143
0.000767214
0.000840071
0.000937055
0.00104026
0.00114552
0.00125356
0.00135997
0.00146411
0.00156562
0.00166331
0.00175737
0.00185441
0.00197667
0.00216775
0.00235101
0.00252592
0.00269094
0.00284637
0.00299256
0.00312827
0.00326544
0.00339066
0.00350572
0.00360805
0.00369986
0.00377828
0.00391915
0.00404236
0.00414099
0.00421639
0.0042655
0.00429078
0.0042926
0.00426557
0.00421003
0.00412799
0.00402003
0.00389137
0.00373559
0.00356827
0.00338996
0.00316895
0.00298222
0.00279098
0.00247265
0.00161625
0.00010082
0.000528844
0.000519766
0.000622458
0.00071351
0.000808679
0.000908166
0.00101657
0.00112829
0.00124693
0.00136307
0.00147572
0.00158368
0.00168617
0.00178086
0.0018659
0.00194941
0.00211473
0.00228391
0.00244386
0.0025942
0.00273368
0.00286285
0.00298142
0.00310056
0.00321172
0.00331253
0.00340056
0.00347789
0.00354351
0.00362587
0.00373159
0.00381511
0.00387587
0.00391403
0.0039287
0.00392171
0.00389273
0.00383402
0.00374994
0.00364349
0.0035196
0.00337337
0.00321882
0.0030521
0.00285326
0.00269209
0.00252353
0.00224966
0.00145974
1.96764e-05
0.000232341
0.000357023
0.000455711
0.000577905
0.000701598
0.000819255
0.000936449
0.00104141
0.00115383
0.00127105
0.00138912
0.00150068
0.00160801
0.00170773
0.00179145
0.00187099
0.00201718
0.00216778
0.00231002
0.00244364
0.00256739
0.00268239
0.00278762
0.00288897
0.00298451
0.00306907
0.00314358
0.00320813
0.00326225
0.0033083
0.00339684
0.00346389
0.0035116
0.00353774
0.00354388
0.00352939
0.0034958
0.00344346
0.00336375
0.00326139
0.00314351
0.00300818
0.0028681
0.00271537
0.00254109
0.00240508
0.00225765
0.00199896
0.001309
1.69916e-05
9.75528e-05
0.000205054
0.000309559
0.000424576
0.00052332
0.000645129
0.000761256
0.000875832
0.000988815
0.00109507
0.00120291
0.0013058
0.00140495
0.00149631
0.00158812
0.00170579
0.00184742
0.00197932
0.00210509
0.00222345
0.00233382
0.00243629
0.0025303
0.00261572
0.00269441
0.00276386
0.00282452
0.0028763
0.00292014
0.00295535
0.0030187
0.00306968
0.00310374
0.00311927
0.00311732
0.00309805
0.00306154
0.00300911
0.00294206
0.00285668
0.00274792
0.0026267
0.00250232
0.00236519
0.00221748
0.00210785
0.00198243
0.00173919
0.00115598
1.08871e-05
4.88153e-05
0.000102022
0.000171691
0.000261076
0.000351444
0.000456731
0.00056096
0.000654582
0.000743517
0.000838707
0.000947939
0.00105209
0.00115697
0.00126416
0.00137285
0.00148507
0.00159752
0.00170732
0.00181465
0.00191771
0.00201538
0.00210717
0.00219292
0.0022675
0.00232861
0.00238326
0.00243142
0.00247234
0.00250774
0.00253732
0.00258771
0.00262351
0.00264567
0.00265207
0.00264434
0.00262225
0.00258656
0.00253735
0.00247581
0.00240219
0.00231931
0.0022214
0.00211552
0.00199971
0.0018814
0.00179531
0.00167694
0.00147197
0.00099824
6.96913e-06
2.75983e-05
5.57473e-05
9.04904e-05
0.000137028
0.000193157
0.000257412
0.000328851
0.000404876
0.000508733
0.000613869
0.000718792
0.000822252
0.000910388
0.00100041
0.00109088
0.00118203
0.0012749
0.00136556
0.00145485
0.00154228
0.00162577
0.00170543
0.00178074
0.00184356
0.0018911
0.0019339
0.00197218
0.00200555
0.00203437
0.00207435
0.00210859
0.00213213
0.002146
0.00214657
0.00213677
0.00211554
0.00208307
0.00204075
0.00198831
0.00192723
0.00185877
0.00178236
0.00170327
0.00161601
0.00152503
0.00145648
0.00135657
0.00120919
0.000838563
4.58617e-06
1.69622e-05
3.28906e-05
5.22299e-05
7.42299e-05
9.96707e-05
0.000129437
0.000165314
0.000208819
0.000263063
0.000328629
0.000397708
0.000464493
0.000544597
0.000625092
0.000704478
0.00078333
0.000862267
0.000941056
0.00101886
0.00109503
0.00116875
0.00123913
0.00130662
0.00135494
0.00139602
0.00143365
0.00146743
0.00150638
0.00154315
0.00157408
0.00159838
0.00161498
0.00162415
0.00162302
0.00161565
0.00159911
0.00157369
0.00154177
0.00150282
0.00145735
0.00140577
0.00135007
0.00129088
0.00123031
0.00117059
0.00112411
0.00105449
0.000957989
0.000681156
3.07699e-06
1.08562e-05
2.02717e-05
3.11367e-05
4.33141e-05
5.66992e-05
7.05263e-05
8.60973e-05
0.000103627
0.00012406
0.000148378
0.000176309
0.00021089
0.000252005
0.000299298
0.000351576
0.000407406
0.000465347
0.000525554
0.000585179
0.000645729
0.000706057
0.000765429
0.000814339
0.0008599
0.000903093
0.000942469
0.00097966
0.00101297
0.00104206
0.00106795
0.00108844
0.00110343
0.00111357
0.00111675
0.00111462
0.00110561
0.00109185
0.00107284
0.00104788
0.00101879
0.000985843
0.000951664
0.00091528
0.000879837
0.000847039
0.000821443
0.000784901
0.00072499
0.0005313
2.06802e-06
7.08008e-06
1.29325e-05
1.94865e-05
2.65873e-05
3.41068e-05
4.19697e-05
4.99562e-05
5.78404e-05
6.61686e-05
7.44622e-05
8.31576e-05
9.28716e-05
0.000104068
0.000117888
0.000135065
0.000156713
0.000183321
0.000214406
0.000249422
0.000286907
0.000327121
0.000365995
0.000403756
0.000439738
0.000474297
0.000506396
0.000536226
0.000563202
0.000588859
0.000611938
0.000630676
0.000647325
0.000659469
0.00066811
0.00067308
0.000673479
0.000670426
0.000663754
0.000653906
0.000641932
0.000627176
0.000611868
0.000596047
0.000582684
0.00057059
0.000565534
0.000558934
0.000522737
0.000390365
1.37786e-06
4.63218e-06
8.35728e-06
1.24651e-05
1.68476e-05
2.13944e-05
2.60051e-05
3.05983e-05
3.51121e-05
3.93212e-05
4.27287e-05
4.58452e-05
4.86586e-05
5.12415e-05
5.39566e-05
5.65287e-05
5.99662e-05
6.38775e-05
7.18472e-05
8.26089e-05
9.53544e-05
0.00011012
0.000126324
0.00014393
0.000162912
0.000182163
0.000201357
0.000221151
0.000239507
0.000257491
0.000275003
0.000290632
0.000304558
0.000317028
0.000327844
0.000336268
0.000343131
0.000347935
0.000350599
0.000351499
0.000351488
0.000350602
0.000350371
0.000350851
0.000353392
0.000357602
0.000368434
0.000375271
0.000352693
0.000264167
9.01639e-07
3.00097e-06
5.38247e-06
7.99451e-06
1.07705e-05
1.36352e-05
1.65113e-05
1.93236e-05
2.19581e-05
2.42125e-05
2.61327e-05
2.76526e-05
2.86487e-05
2.91492e-05
2.92077e-05
2.87735e-05
2.78026e-05
2.85297e-05
3.03335e-05
3.21127e-05
3.44783e-05
3.68523e-05
3.9847e-05
4.29632e-05
4.7011e-05
5.16654e-05
5.68824e-05
6.27973e-05
6.91433e-05
7.61722e-05
8.38129e-05
9.2109e-05
0.000100196
0.000107974
0.000116673
0.000124887
0.00013279
0.000140061
0.000146615
0.000153325
0.000159857
0.000166474
0.000174124
0.00018327
0.000194172
0.000206802
0.00022322
0.000232165
0.000218088
0.000158408
5.72795e-07
1.89925e-06
3.40295e-06
5.05582e-06
6.81903e-06
8.64487e-06
1.04801e-05
1.22076e-05
1.37746e-05
1.51349e-05
1.62314e-05
1.70098e-05
1.7423e-05
1.7426e-05
1.69762e-05
1.60467e-05
1.53435e-05
1.55751e-05
1.56479e-05
1.55534e-05
1.52667e-05
1.50018e-05
1.45763e-05
1.39156e-05
1.3191e-05
1.24614e-05
1.15191e-05
1.08923e-05
1.07885e-05
1.27764e-05
1.4901e-05
1.77929e-05
2.08092e-05
2.44418e-05
2.81329e-05
3.227e-05
3.63155e-05
4.12657e-05
4.60364e-05
5.08605e-05
5.58675e-05
6.39013e-05
7.3363e-05
8.43192e-05
9.6729e-05
0.000109921
0.000123559
0.000128498
0.000120625
8.03867e-05
3.46794e-07
1.15283e-06
2.07355e-06
3.09512e-06
4.18554e-06
5.308e-06
6.42495e-06
7.49179e-06
8.46117e-06
9.28629e-06
9.92199e-06
1.0324e-05
1.04519e-05
1.02674e-05
9.7341e-06
9.11941e-06
9.12546e-06
8.97402e-06
8.65149e-06
8.18589e-06
7.51633e-06
6.62054e-06
5.47981e-06
4.07777e-06
2.43081e-06
2.58171e-06
2.79772e-06
3.02888e-06
3.28956e-06
3.74635e-06
4.31253e-06
4.97719e-06
5.94804e-06
7.02843e-06
8.35131e-06
9.93202e-06
1.16119e-05
1.37257e-05
1.59758e-05
1.8265e-05
2.08597e-05
2.35129e-05
2.61075e-05
3.41113e-05
4.36252e-05
5.28821e-05
5.98085e-05
6.27099e-05
5.59985e-05
3.13239e-05
1.91098e-07
6.43362e-07
1.16838e-06
1.75744e-06
2.39425e-06
3.05629e-06
3.71621e-06
4.34317e-06
4.90441e-06
5.36607e-06
5.69449e-06
5.85693e-06
5.82068e-06
5.55477e-06
5.38797e-06
5.39277e-06
5.27646e-06
5.02564e-06
4.62549e-06
4.05976e-06
3.30843e-06
2.34997e-06
1.16091e-06
1.11786e-06
1.11422e-06
1.10056e-06
1.08368e-06
1.07172e-06
1.0754e-06
1.14363e-06
1.29085e-06
1.50263e-06
1.78421e-06
2.18613e-06
2.70794e-06
3.31462e-06
4.00268e-06
4.85157e-06
5.80349e-06
6.80817e-06
7.85249e-06
8.89055e-06
9.86119e-06
1.13979e-05
1.69377e-05
2.17384e-05
2.5624e-05
2.54421e-05
1.91993e-05
9.55275e-06
8.70335e-08
3.07454e-07
5.74934e-07
8.82117e-07
1.21695e-06
1.56379e-06
1.90466e-06
2.21958e-06
2.4871e-06
2.68474e-06
2.78913e-06
2.77726e-06
2.80277e-06
2.88415e-06
2.89353e-06
2.82033e-06
2.65325e-06
2.37953e-06
1.98483e-06
1.45322e-06
7.68348e-07
5.90658e-07
5.55098e-07
5.08931e-07
4.5326e-07
3.90508e-07
3.28477e-07
2.81912e-07
2.4408e-07
2.27494e-07
2.47035e-07
3.09527e-07
4.16013e-07
5.80061e-07
8.06327e-07
1.08537e-06
1.41256e-06
1.77877e-06
2.17226e-06
2.57752e-06
2.97666e-06
3.32903e-06
3.59632e-06
3.71913e-06
5.82029e-06
8.10743e-06
8.69114e-06
7.47963e-06
4.90651e-06
2.3292e-06
2.25531e-08
9.79865e-08
2.03081e-07
3.22916e-07
4.48168e-07
5.69305e-07
6.77147e-07
7.60969e-07
8.60501e-07
9.67136e-07
1.0546e-06
1.11581e-06
1.1434e-06
1.13015e-06
1.06843e-06
9.49213e-07
7.6195e-07
4.95836e-07
2.93917e-07
2.80176e-07
2.58702e-07
2.30035e-07
1.91825e-07
1.45477e-07
9.24158e-08
3.18679e-08
1.03984e-09
1.09917e-09
1.1902e-09
1.31966e-09
1.52579e-09
1.99074e-09
2.50775e-09
3.06805e-09
1.07138e-07
2.43055e-07
4.01274e-07
5.7457e-07
7.47829e-07
9.01203e-07
1.03342e-06
1.12362e-06
1.16681e-06
1.11707e-06
1.08992e-06
1.71456e-06
1.70598e-06
1.31975e-06
7.80693e-07
3.56338e-07
6.07234e-10
9.67801e-09
2.06195e-08
2.75566e-08
3.11576e-08
2.96819e-08
2.23869e-08
2.15732e-08
2.55533e-08
2.92e-08
3.22377e-08
3.43697e-08
3.53039e-08
3.48374e-08
3.28664e-08
2.87468e-08
2.18406e-08
1.17402e-08
2.27419e-10
2.25653e-10
2.20362e-10
2.11439e-10
1.99225e-10
1.84909e-10
1.70307e-10
1.57854e-10
1.50959e-10
1.52685e-10
1.64584e-10
1.88235e-10
2.25023e-10
2.73976e-10
3.32981e-10
3.99855e-10
4.71505e-10
5.43665e-10
6.11283e-10
6.68868e-10
7.10043e-10
7.29045e-10
7.21828e-10
3.69321e-08
6.88044e-08
8.38038e-08
8.3752e-08
7.21652e-08
5.28413e-08
3.40688e-08
1.7885e-08
1.03201e-08
)
;

boundaryField
{
    AXIS
    {
        type            empty;
    }
    OUTLET
    {
        type            calculated;
        value           nonuniform List<scalar> 
25
(
0.00245973
0.00243203
0.00237121
0.00228387
0.00217566
0.00205384
0.00192106
0.00178032
0.00161625
0.00145974
0.001309
0.00115598
0.00099824
0.000838563
0.000681156
0.0005313
0.000390365
0.000264167
0.000158408
8.03867e-05
3.13239e-05
9.55275e-06
2.3292e-06
3.56338e-07
1.03201e-08
)
;
    }
    COFLOW
    {
        type            calculated;
        value           uniform 0;
    }
    PILOT
    {
        type            calculated;
        value           uniform 1.93659e-17;
    }
    FUEL
    {
        type            calculated;
        value           uniform 0;
    }
    WALL
    {
        type            calculated;
        value           nonuniform List<scalar> 
50
(
6.07234e-10
9.67801e-09
2.06195e-08
2.75566e-08
3.11576e-08
2.96819e-08
2.23869e-08
2.15732e-08
2.55533e-08
2.92e-08
3.22377e-08
3.43697e-08
3.53039e-08
3.48374e-08
3.28664e-08
2.87468e-08
2.18406e-08
1.17402e-08
2.27419e-10
2.25653e-10
2.20362e-10
2.11439e-10
1.99225e-10
1.84909e-10
1.70307e-10
1.57854e-10
1.50959e-10
1.52685e-10
1.64584e-10
1.88235e-10
2.25023e-10
2.73976e-10
3.32981e-10
3.99855e-10
4.71505e-10
5.43665e-10
6.11283e-10
6.68868e-10
7.10043e-10
7.29045e-10
7.21828e-10
3.69321e-08
6.88044e-08
8.38038e-08
8.3752e-08
7.21652e-08
5.28413e-08
3.40688e-08
1.7885e-08
1.03201e-08
)
;
    }
    front
    {
        type            wedge;
    }
    back
    {
        type            wedge;
    }
}


// ************************************************************************* //
