/*--------------------------------*- C++ -*----------------------------------*\
| =========                 |                                                 |
| \\      /  F ield         | OpenFOAM: The Open Source CFD Toolbox           |
|  \\    /   O peration     | Version:  2.4.x                                 |
|   \\  /    A nd           | Web:      www.OpenFOAM.org                      |
|    \\/     M anipulation  |                                                 |
\*---------------------------------------------------------------------------*/
FoamFile
{
    version     2.0;
    format      ascii;
    class       volScalarField;
    location    "0.1";
    object      C2H3;
}
// * * * * * * * * * * * * * * * * * * * * * * * * * * * * * * * * * * * * * //

dimensions      [0 0 0 0 0 0 0];

internalField   nonuniform List<scalar> 
1250
(
2.52102e-09
9.38882e-09
1.7057e-08
2.5808e-08
3.7044e-08
5.16955e-08
7.03131e-08
9.29288e-08
1.18441e-07
1.44284e-07
1.71606e-07
1.9847e-07
2.26754e-07
2.554e-07
2.84476e-07
3.13898e-07
3.40893e-07
3.65857e-07
3.91941e-07
4.19178e-07
4.47264e-07
4.75997e-07
5.0456e-07
5.3077e-07
5.55547e-07
5.78783e-07
6.02416e-07
6.24241e-07
6.45414e-07
6.64373e-07
6.8123e-07
6.95205e-07
7.07732e-07
7.21223e-07
7.3146e-07
7.36577e-07
7.36324e-07
7.31198e-07
7.19828e-07
7.03529e-07
6.8136e-07
6.55461e-07
6.25826e-07
5.89031e-07
5.55355e-07
5.14542e-07
4.68813e-07
4.40009e-07
3.97701e-07
2.72264e-07
2.93927e-09
1.06691e-08
1.88546e-08
2.85207e-08
4.12709e-08
5.79352e-08
7.88931e-08
1.03575e-07
1.28928e-07
1.55974e-07
1.83978e-07
2.1149e-07
2.39977e-07
2.68779e-07
2.97984e-07
3.26933e-07
3.53469e-07
3.78258e-07
4.04119e-07
4.31065e-07
4.58943e-07
4.87087e-07
5.15163e-07
5.41305e-07
5.6738e-07
5.90293e-07
6.12744e-07
6.3408e-07
6.54293e-07
6.72491e-07
6.88423e-07
7.0142e-07
7.12129e-07
7.24929e-07
7.34163e-07
7.38345e-07
7.37362e-07
7.31317e-07
7.19158e-07
7.02166e-07
6.79431e-07
6.5307e-07
6.23021e-07
5.86102e-07
5.52295e-07
5.11463e-07
4.6582e-07
4.37161e-07
3.95185e-07
2.70281e-07
4.2634e-09
1.43527e-08
2.42196e-08
3.71029e-08
5.47504e-08
7.71122e-08
1.02607e-07
1.28642e-07
1.56666e-07
1.85911e-07
2.15032e-07
2.43267e-07
2.71964e-07
3.00782e-07
3.29254e-07
3.57285e-07
3.82533e-07
4.06632e-07
4.3184e-07
4.58102e-07
4.84963e-07
5.11924e-07
5.38913e-07
5.64441e-07
5.92011e-07
6.1526e-07
6.35712e-07
6.5564e-07
6.73975e-07
6.90417e-07
7.04489e-07
7.1521e-07
7.22561e-07
7.33088e-07
7.40072e-07
7.42167e-07
7.39491e-07
7.3137e-07
7.17497e-07
6.99087e-07
6.75334e-07
6.47907e-07
6.16961e-07
5.79716e-07
5.45638e-07
5.04666e-07
4.59211e-07
4.30724e-07
3.89745e-07
2.65874e-07
8.36387e-09
2.3603e-08
3.96778e-08
6.32266e-08
9.16349e-08
1.20151e-07
1.50236e-07
1.81386e-07
2.12269e-07
2.4322e-07
2.72359e-07
3.00019e-07
3.27435e-07
3.54615e-07
3.81143e-07
4.06855e-07
4.2967e-07
4.52248e-07
4.7607e-07
5.00535e-07
5.25381e-07
5.50433e-07
5.75197e-07
5.9954e-07
6.25265e-07
6.52099e-07
6.70372e-07
6.87507e-07
7.03112e-07
7.16708e-07
7.27203e-07
7.34497e-07
7.39031e-07
7.43425e-07
7.47399e-07
7.4688e-07
7.41322e-07
7.30414e-07
7.1422e-07
6.9394e-07
6.68454e-07
6.39528e-07
6.07393e-07
5.69628e-07
5.35243e-07
4.9401e-07
4.49203e-07
4.20919e-07
3.81517e-07
2.59404e-07
2.62183e-08
6.06374e-08
1.0153e-07
1.42824e-07
1.82253e-07
2.1922e-07
2.51873e-07
2.84479e-07
3.14019e-07
3.42213e-07
3.66523e-07
3.90004e-07
4.12661e-07
4.3444e-07
4.56226e-07
4.78288e-07
4.97162e-07
5.16923e-07
5.37548e-07
5.58885e-07
5.80395e-07
6.02045e-07
6.23418e-07
6.44667e-07
6.67871e-07
6.92046e-07
7.15395e-07
7.28889e-07
7.40175e-07
7.48821e-07
7.54883e-07
7.5832e-07
7.58378e-07
7.54897e-07
7.55008e-07
7.50735e-07
7.41417e-07
7.27282e-07
7.08453e-07
6.85764e-07
6.5799e-07
6.27419e-07
5.94066e-07
5.55841e-07
5.2114e-07
4.79673e-07
4.35865e-07
4.07618e-07
3.70907e-07
2.51133e-07
3.17577e-07
3.03602e-07
3.24434e-07
3.47462e-07
3.71228e-07
3.95023e-07
4.15158e-07
4.36259e-07
4.54773e-07
4.71692e-07
4.88051e-07
5.07041e-07
5.27481e-07
5.4329e-07
5.58089e-07
5.72793e-07
5.85987e-07
6.00452e-07
6.15991e-07
6.32302e-07
6.48508e-07
6.6485e-07
6.81076e-07
6.98596e-07
7.18371e-07
7.39137e-07
7.59541e-07
7.76138e-07
7.81622e-07
7.85116e-07
7.85347e-07
7.82739e-07
7.77432e-07
7.69247e-07
7.59891e-07
7.51495e-07
7.38358e-07
7.20884e-07
6.98818e-07
6.73096e-07
6.43055e-07
6.11038e-07
5.76517e-07
5.37981e-07
5.03087e-07
4.61614e-07
4.19198e-07
3.91793e-07
3.57642e-07
2.41507e-07
8.62319e-07
7.72157e-07
6.97613e-07
6.5755e-07
6.38284e-07
6.39325e-07
6.33572e-07
6.31684e-07
6.32538e-07
6.35804e-07
6.42166e-07
6.5068e-07
6.60477e-07
6.71692e-07
6.82979e-07
6.87036e-07
6.92619e-07
6.99734e-07
7.08184e-07
7.17584e-07
7.26279e-07
7.35817e-07
7.46109e-07
7.57781e-07
7.72581e-07
7.8771e-07
8.02324e-07
8.16126e-07
8.2328e-07
8.19725e-07
8.13618e-07
8.04961e-07
7.93624e-07
7.79653e-07
7.63026e-07
7.47195e-07
7.30197e-07
7.08943e-07
6.83644e-07
6.55323e-07
6.23376e-07
5.90036e-07
5.54431e-07
5.15931e-07
4.8111e-07
4.39829e-07
3.99676e-07
3.73443e-07
3.42063e-07
2.31037e-07
3.61537e-07
8.21856e-07
8.9103e-07
8.91297e-07
8.72539e-07
8.68333e-07
8.53471e-07
8.37569e-07
8.22987e-07
8.13857e-07
8.07123e-07
8.02455e-07
7.99732e-07
7.9836e-07
7.98155e-07
8.02259e-07
8.00227e-07
8.0012e-07
8.01114e-07
8.02782e-07
8.04931e-07
8.07334e-07
8.09847e-07
8.13835e-07
8.23329e-07
8.32202e-07
8.40476e-07
8.476e-07
8.53151e-07
8.48268e-07
8.34884e-07
8.19321e-07
8.01965e-07
7.82781e-07
7.61163e-07
7.37772e-07
7.15153e-07
6.90322e-07
6.62084e-07
6.31543e-07
5.98137e-07
5.63907e-07
5.27785e-07
4.89774e-07
4.5523e-07
4.14934e-07
3.77628e-07
3.5279e-07
3.24856e-07
2.18919e-07
6.30937e-08
4.93163e-07
6.87466e-07
8.41668e-07
9.23187e-07
9.61652e-07
9.77644e-07
9.73145e-07
9.63108e-07
9.55408e-07
9.44642e-07
9.33267e-07
9.22445e-07
9.12322e-07
9.0367e-07
9.03968e-07
9.05679e-07
8.97521e-07
8.90293e-07
8.83751e-07
8.7726e-07
8.71379e-07
8.66052e-07
8.61048e-07
8.6453e-07
8.66613e-07
8.67879e-07
8.67242e-07
8.65603e-07
8.61914e-07
8.43415e-07
8.22029e-07
7.98802e-07
7.74393e-07
7.48273e-07
7.21117e-07
6.93057e-07
6.64657e-07
6.34069e-07
6.0183e-07
5.67554e-07
5.32798e-07
4.96483e-07
4.59655e-07
4.26258e-07
3.87347e-07
3.53377e-07
3.30523e-07
3.06117e-07
2.02287e-07
8.5085e-09
1.40392e-07
3.17988e-07
5.35215e-07
7.21434e-07
8.50809e-07
9.32148e-07
9.74566e-07
1.00827e-06
1.02888e-06
1.03804e-06
1.0363e-06
1.03037e-06
1.02211e-06
1.01157e-06
1.00437e-06
9.99956e-07
9.83215e-07
9.6628e-07
9.50149e-07
9.34692e-07
9.199e-07
9.05576e-07
8.91641e-07
8.86487e-07
8.81969e-07
8.76486e-07
8.6905e-07
8.60521e-07
8.50423e-07
8.335e-07
8.07259e-07
7.80032e-07
7.51801e-07
7.22923e-07
6.92971e-07
6.62618e-07
6.31745e-07
5.9951e-07
5.66163e-07
5.31397e-07
4.96941e-07
4.61676e-07
4.26688e-07
3.94316e-07
3.57523e-07
3.27535e-07
3.06944e-07
2.85541e-07
1.8524e-07
1.03742e-09
2.15325e-08
8.29685e-08
2.22556e-07
4.06635e-07
5.77776e-07
7.19026e-07
8.20482e-07
8.94964e-07
9.42822e-07
9.92569e-07
1.01712e-06
1.03069e-06
1.03681e-06
1.03744e-06
1.03662e-06
1.03339e-06
1.01507e-06
9.93719e-07
9.72626e-07
9.52068e-07
9.31992e-07
9.12542e-07
8.9355e-07
8.81025e-07
8.70982e-07
8.59468e-07
8.46864e-07
8.33184e-07
8.18125e-07
8.01387e-07
7.72515e-07
7.42658e-07
7.12676e-07
6.81959e-07
6.51041e-07
6.19634e-07
5.88295e-07
5.56566e-07
5.23843e-07
4.90099e-07
4.56485e-07
4.22487e-07
3.89805e-07
3.59445e-07
3.2554e-07
2.99863e-07
2.81776e-07
2.5811e-07
1.67805e-07
9.51081e-10
6.24581e-09
1.82372e-08
5.38332e-08
1.36381e-07
2.73976e-07
4.2228e-07
5.44328e-07
6.54772e-07
7.39644e-07
8.03014e-07
8.4975e-07
8.85737e-07
9.09714e-07
9.27496e-07
9.51575e-07
9.63397e-07
9.56521e-07
9.42963e-07
9.27412e-07
9.10312e-07
8.92113e-07
8.7351e-07
8.54493e-07
8.37989e-07
8.24152e-07
8.09002e-07
7.92783e-07
7.75612e-07
7.57733e-07
7.39033e-07
7.10769e-07
6.80802e-07
6.50811e-07
6.207e-07
5.9066e-07
5.60667e-07
5.30195e-07
4.99939e-07
4.7035e-07
4.40053e-07
4.08739e-07
3.77292e-07
3.47654e-07
3.19794e-07
2.89646e-07
2.68243e-07
2.53167e-07
2.27113e-07
1.48784e-07
6.21234e-10
2.89711e-09
6.57664e-09
1.35451e-08
3.05824e-08
7.18621e-08
1.4102e-07
2.36321e-07
3.42719e-07
4.43022e-07
5.32352e-07
6.06184e-07
6.67486e-07
7.09374e-07
7.37164e-07
7.62709e-07
7.78756e-07
7.86951e-07
7.91073e-07
7.90881e-07
7.86134e-07
7.78123e-07
7.68068e-07
7.56271e-07
7.42824e-07
7.28434e-07
7.12919e-07
6.96471e-07
6.79094e-07
6.61306e-07
6.42465e-07
6.16175e-07
5.89667e-07
5.6296e-07
5.35986e-07
5.09045e-07
4.82075e-07
4.55197e-07
4.28403e-07
4.02143e-07
3.76032e-07
3.506e-07
3.24155e-07
2.98209e-07
2.73669e-07
2.48588e-07
2.31977e-07
2.17137e-07
1.93225e-07
1.28134e-07
4.00426e-10
1.60878e-09
3.33223e-09
5.69818e-09
9.6137e-09
1.65127e-08
2.99922e-08
5.62804e-08
1.00256e-07
1.57122e-07
2.22951e-07
2.90717e-07
3.54817e-07
4.07077e-07
4.51941e-07
4.90347e-07
5.2244e-07
5.46771e-07
5.67111e-07
5.81232e-07
5.90442e-07
5.95251e-07
5.97091e-07
5.9577e-07
5.90044e-07
5.79943e-07
5.68393e-07
5.55851e-07
5.42437e-07
5.28396e-07
5.10297e-07
4.90662e-07
4.70522e-07
4.50188e-07
4.29072e-07
4.07793e-07
3.86268e-07
3.64632e-07
3.4309e-07
3.21764e-07
3.00545e-07
2.7989e-07
2.59142e-07
2.39693e-07
2.20798e-07
2.01487e-07
1.88713e-07
1.7554e-07
1.57536e-07
1.06269e-07
2.63905e-10
9.82409e-10
1.92563e-09
3.11004e-09
4.54675e-09
6.41209e-09
9.07353e-09
1.33622e-08
2.07547e-08
3.36679e-08
5.45012e-08
8.28192e-08
1.16067e-07
1.5089e-07
1.86565e-07
2.21227e-07
2.54073e-07
2.84105e-07
3.11258e-07
3.35061e-07
3.55124e-07
3.71344e-07
3.84839e-07
3.94241e-07
3.95729e-07
3.9383e-07
3.90475e-07
3.85477e-07
3.77681e-07
3.68412e-07
3.58338e-07
3.47373e-07
3.3547e-07
3.22942e-07
3.09315e-07
2.95506e-07
2.81102e-07
2.66222e-07
2.51149e-07
2.35999e-07
2.20798e-07
2.05852e-07
1.9118e-07
1.77209e-07
1.63777e-07
1.5111e-07
1.43147e-07
1.33388e-07
1.22092e-07
8.40182e-08
1.76901e-10
6.26121e-10
1.17457e-09
1.81552e-09
2.54843e-09
3.38186e-09
4.29923e-09
5.43536e-09
6.92001e-09
9.03266e-09
1.21889e-08
1.67263e-08
2.34078e-08
3.27792e-08
4.50506e-08
6.00526e-08
7.7209e-08
9.58059e-08
1.15156e-07
1.3403e-07
1.52229e-07
1.69023e-07
1.84189e-07
1.94138e-07
2.01564e-07
2.07092e-07
2.10892e-07
2.12846e-07
2.13362e-07
2.12419e-07
2.1066e-07
2.078e-07
2.03786e-07
1.98909e-07
1.92883e-07
1.86192e-07
1.78648e-07
1.7069e-07
1.62325e-07
1.53527e-07
1.44602e-07
1.3565e-07
1.26936e-07
1.18515e-07
1.1101e-07
1.04437e-07
1.00084e-07
9.50724e-08
8.84417e-08
6.25305e-08
1.18592e-10
4.06667e-10
7.44317e-10
1.12424e-09
1.53848e-09
1.98138e-09
2.45179e-09
2.94305e-09
3.4527e-09
4.03028e-09
4.66845e-09
5.42897e-09
6.4075e-09
7.71375e-09
9.52756e-09
1.20373e-08
1.54793e-08
2.0078e-08
2.58663e-08
3.27517e-08
4.04466e-08
4.85498e-08
5.65622e-08
6.42073e-08
7.12664e-08
7.76372e-08
8.31524e-08
8.78347e-08
9.16081e-08
9.4637e-08
9.70349e-08
9.8452e-08
9.91827e-08
9.90262e-08
9.81657e-08
9.66614e-08
9.44264e-08
9.17086e-08
8.8537e-08
8.50098e-08
8.13429e-08
7.74655e-08
7.37132e-08
7.01061e-08
6.72571e-08
6.49542e-08
6.38295e-08
6.30991e-08
5.96074e-08
4.26828e-08
7.87114e-11
2.64829e-10
4.78166e-10
7.13693e-10
9.65206e-10
1.22643e-09
1.49174e-09
1.75691e-09
2.01924e-09
2.26798e-09
2.47747e-09
2.67664e-09
2.86805e-09
3.0608e-09
3.28348e-09
3.5293e-09
3.87641e-09
4.31942e-09
5.15138e-09
6.31359e-09
7.77271e-09
9.5605e-09
1.16479e-08
1.40123e-08
1.66053e-08
1.93223e-08
2.2065e-08
2.48104e-08
2.73758e-08
2.98237e-08
3.21018e-08
3.40571e-08
3.57172e-08
3.70573e-08
3.80628e-08
3.86819e-08
3.90249e-08
3.90825e-08
3.88221e-08
3.83279e-08
3.77338e-08
3.70535e-08
3.65053e-08
3.60572e-08
3.5982e-08
3.62462e-08
3.74758e-08
3.85659e-08
3.66066e-08
2.59398e-08
5.12451e-11
1.7062e-10
3.06051e-10
4.54492e-10
6.12004e-10
7.74129e-10
9.36264e-10
1.09395e-09
1.24091e-09
1.36645e-09
1.47209e-09
1.55386e-09
1.605e-09
1.62664e-09
1.62132e-09
1.5859e-09
1.51763e-09
1.56712e-09
1.69791e-09
1.83654e-09
2.02265e-09
2.22423e-09
2.48166e-09
2.76735e-09
3.13565e-09
3.56849e-09
4.06427e-09
4.63644e-09
5.26932e-09
5.96556e-09
6.71371e-09
7.52549e-09
8.33015e-09
9.11082e-09
9.93355e-09
1.0693e-08
1.14198e-08
1.20783e-08
1.2658e-08
1.32392e-08
1.37973e-08
1.43611e-08
1.5035e-08
1.58739e-08
1.69274e-08
1.81939e-08
1.99792e-08
2.11453e-08
1.99203e-08
1.33827e-08
3.23443e-11
1.07251e-10
1.92106e-10
2.85215e-10
3.84246e-10
4.86333e-10
5.88275e-10
6.83807e-10
7.69641e-10
8.42803e-10
8.99843e-10
9.37436e-10
9.52635e-10
9.42584e-10
9.04535e-10
8.36795e-10
7.8632e-10
8.01221e-10
8.08072e-10
8.0637e-10
7.94705e-10
7.8438e-10
7.65195e-10
7.32805e-10
6.95759e-10
6.56741e-10
6.04322e-10
5.66608e-10
5.59712e-10
6.80932e-10
8.15316e-10
9.98255e-10
1.19613e-09
1.43988e-09
1.69648e-09
1.99223e-09
2.29064e-09
2.65009e-09
3.00615e-09
3.37373e-09
3.76289e-09
4.39698e-09
5.16142e-09
6.07272e-09
7.13159e-09
8.303e-09
9.57089e-09
1.00857e-08
9.34688e-09
5.61443e-09
1.94211e-11
6.45485e-11
1.16029e-10
1.73e-10
2.33656e-10
2.95863e-10
3.57371e-10
4.15547e-10
4.67587e-10
5.10705e-10
5.42193e-10
5.59383e-10
5.59811e-10
5.4113e-10
5.01066e-10
4.57615e-10
4.57813e-10
4.49916e-10
4.33182e-10
4.09159e-10
3.74294e-10
3.27302e-10
2.67072e-10
1.92571e-10
1.04427e-10
1.11652e-10
1.21934e-10
1.33129e-10
1.46031e-10
1.68378e-10
1.96384e-10
2.29908e-10
2.79355e-10
3.35912e-10
4.06689e-10
4.93251e-10
5.88281e-10
7.09467e-10
8.42556e-10
9.82756e-10
1.14602e-09
1.31964e-09
1.49685e-09
2.05347e-09
2.73355e-09
3.41926e-09
3.93939e-09
4.14047e-09
3.58624e-09
1.79298e-09
1.06056e-11
3.56957e-11
6.47801e-11
9.73261e-11
1.32368e-10
1.68578e-10
2.04346e-10
2.37857e-10
2.67175e-10
2.90296e-10
3.05223e-10
3.09992e-10
3.02653e-10
2.81338e-10
2.68121e-10
2.6802e-10
2.61736e-10
2.48572e-10
2.27756e-10
1.9844e-10
1.59578e-10
1.10039e-10
4.85844e-11
4.63737e-11
4.63307e-11
4.58768e-11
4.52952e-11
4.49367e-11
4.52646e-11
4.8404e-11
5.50063e-11
6.44969e-11
7.72141e-11
9.55308e-11
1.19627e-10
1.48138e-10
1.81119e-10
2.22556e-10
2.70092e-10
3.21583e-10
3.76604e-10
4.33031e-10
4.87515e-10
5.78783e-10
9.16602e-10
1.21222e-09
1.44695e-09
1.42139e-09
1.03034e-09
4.85619e-10
4.77519e-12
1.68568e-11
3.14757e-11
4.81858e-11
6.62728e-11
8.48168e-11
1.02759e-10
1.18923e-10
1.32047e-10
1.40803e-10
1.43811e-10
1.39703e-10
1.38864e-10
1.427e-10
1.42882e-10
1.38868e-10
1.30085e-10
1.1588e-10
9.55214e-11
6.81964e-11
3.30686e-11
2.41784e-11
2.27295e-11
2.08464e-11
1.85746e-11
1.60133e-11
1.34818e-11
1.15939e-11
1.00611e-11
9.40383e-12
1.02457e-11
1.28856e-11
1.73936e-11
2.43826e-11
3.41002e-11
4.61942e-11
6.05203e-11
7.67333e-11
9.43617e-11
1.1274e-10
1.31059e-10
1.47441e-10
1.59963e-10
1.65691e-10
2.81546e-10
4.07972e-10
4.39682e-10
3.75556e-10
2.43219e-10
1.14252e-10
1.21163e-12
5.25294e-12
1.08299e-11
1.70974e-11
2.35081e-11
2.94993e-11
3.45226e-11
3.79456e-11
4.25006e-11
4.77163e-11
5.19561e-11
5.48617e-11
5.60616e-11
5.51894e-11
5.18613e-11
4.56226e-11
3.59417e-11
2.22709e-11
1.19675e-11
1.14088e-11
1.05334e-11
9.36521e-12
7.80872e-12
5.92155e-12
3.76165e-12
1.29684e-12
4.15508e-14
4.39505e-14
4.76342e-14
5.28826e-14
6.12319e-14
7.99743e-14
1.00913e-13
1.23723e-13
4.42892e-12
1.00807e-11
1.66938e-11
2.397e-11
3.12699e-11
3.77474e-11
4.33222e-11
4.70898e-11
4.88374e-11
4.66035e-11
4.61959e-11
7.99305e-11
8.13448e-11
6.34166e-11
3.75588e-11
1.71423e-11
3.10196e-14
4.76983e-13
1.01069e-12
1.33606e-12
1.48605e-12
1.37284e-12
9.58481e-13
8.73717e-13
1.03536e-12
1.1836e-12
1.30726e-12
1.39422e-12
1.43258e-12
1.41404e-12
1.33433e-12
1.16723e-12
8.86828e-13
4.76609e-13
9.05819e-15
8.98627e-15
8.7737e-15
8.4165e-15
7.92854e-15
7.35744e-15
6.77567e-15
6.28012e-15
6.00648e-15
6.07681e-15
6.55316e-15
7.49922e-15
8.97165e-15
1.09334e-14
1.33017e-14
1.59908e-14
1.88776e-14
2.17906e-14
2.4525e-14
2.68569e-14
2.85248e-14
2.92924e-14
2.89938e-14
1.51037e-12
2.81085e-12
3.41825e-12
3.40983e-12
2.93243e-12
2.14317e-12
1.37973e-12
7.23517e-13
4.17223e-13
)
;

boundaryField
{
    AXIS
    {
        type            empty;
    }
    OUTLET
    {
        type            calculated;
        value           nonuniform List<scalar> 
25
(
2.72264e-07
2.70281e-07
2.65874e-07
2.59404e-07
2.51133e-07
2.41507e-07
2.31037e-07
2.18919e-07
2.02287e-07
1.8524e-07
1.67805e-07
1.48784e-07
1.28134e-07
1.06269e-07
8.40182e-08
6.25305e-08
4.26828e-08
2.59398e-08
1.33827e-08
5.61443e-09
1.79298e-09
4.85619e-10
1.14252e-10
1.71423e-11
4.17223e-13
)
;
    }
    COFLOW
    {
        type            calculated;
        value           uniform 0;
    }
    PILOT
    {
        type            calculated;
        value           uniform 3.12069e-22;
    }
    FUEL
    {
        type            calculated;
        value           uniform 0;
    }
    WALL
    {
        type            calculated;
        value           nonuniform List<scalar> 
50
(
3.10196e-14
4.76983e-13
1.01069e-12
1.33606e-12
1.48605e-12
1.37284e-12
9.58481e-13
8.73717e-13
1.03536e-12
1.1836e-12
1.30726e-12
1.39422e-12
1.43258e-12
1.41404e-12
1.33433e-12
1.16723e-12
8.86828e-13
4.76609e-13
9.05819e-15
8.98627e-15
8.7737e-15
8.4165e-15
7.92854e-15
7.35744e-15
6.77567e-15
6.28012e-15
6.00648e-15
6.07681e-15
6.55316e-15
7.49922e-15
8.97165e-15
1.09334e-14
1.33017e-14
1.59908e-14
1.88776e-14
2.17906e-14
2.4525e-14
2.68569e-14
2.85248e-14
2.92924e-14
2.89938e-14
1.51037e-12
2.81085e-12
3.41825e-12
3.40983e-12
2.93243e-12
2.14317e-12
1.37973e-12
7.23517e-13
4.17223e-13
)
;
    }
    front
    {
        type            wedge;
    }
    back
    {
        type            wedge;
    }
}


// ************************************************************************* //
