/*--------------------------------*- C++ -*----------------------------------*\
| =========                 |                                                 |
| \\      /  F ield         | OpenFOAM: The Open Source CFD Toolbox           |
|  \\    /   O peration     | Version:  2.4.x                                 |
|   \\  /    A nd           | Web:      www.OpenFOAM.org                      |
|    \\/     M anipulation  |                                                 |
\*---------------------------------------------------------------------------*/
FoamFile
{
    version     2.0;
    format      ascii;
    class       volScalarField;
    location    "0.1";
    object      C2H4;
}
// * * * * * * * * * * * * * * * * * * * * * * * * * * * * * * * * * * * * * //

dimensions      [0 0 0 0 0 0 0];

internalField   nonuniform List<scalar> 
1250
(
2.14796e-05
7.63555e-05
0.000128439
0.000174126
0.000216311
0.00025545
0.000292327
0.000327554
0.000364991
0.000418368
0.000476122
0.000540451
0.000608264
0.000678245
0.00074778
0.000819744
0.000894409
0.000973413
0.00105084
0.00112741
0.00120111
0.00127246
0.00133965
0.00140872
0.00147846
0.0015413
0.00159312
0.00163028
0.00165569
0.0016668
0.0016651
0.0016511
0.00162426
0.00158303
0.00152909
0.00146313
0.00138781
0.00130511
0.00121682
0.00112521
0.00103142
0.000938508
0.000847625
0.000756383
0.000675678
0.000590976
0.000516851
0.000473342
0.000419253
0.000261959
2.54739e-05
8.6386e-05
0.000139117
0.000184351
0.000225048
0.000262159
0.000296571
0.000329342
0.000377351
0.000431162
0.00048923
0.000553465
0.000621546
0.000690322
0.000759713
0.000831063
0.000905344
0.000982994
0.00105986
0.00113493
0.00120779
0.00127769
0.00134343
0.00141075
0.00147566
0.00153748
0.00158674
0.00162283
0.0016463
0.00165602
0.00165314
0.0016379
0.00161037
0.00156873
0.00151442
0.00144846
0.00137345
0.00129123
0.00120354
0.00111289
0.00101999
0.000928421
0.000838317
0.000748446
0.000668645
0.000585077
0.000511816
0.000468983
0.000416127
0.000259676
3.83336e-05
0.000114596
0.000167046
0.000209009
0.000243802
0.000273292
0.000307002
0.000354795
0.000406142
0.000459447
0.000518539
0.000582792
0.000649402
0.000716748
0.000786028
0.000855586
0.000928515
0.00100399
0.00107846
0.00115104
0.00122134
0.0012881
0.00135066
0.00141376
0.00147216
0.0015286
0.00157353
0.00160688
0.00162651
0.00163331
0.00162802
0.00160998
0.00158083
0.0015384
0.00148304
0.001417
0.00134252
0.00126132
0.00117474
0.00108633
0.000995054
0.00090623
0.000817804
0.000730842
0.000652993
0.00057196
0.000501443
0.000460296
0.000410259
0.000254416
7.88673e-05
0.000176014
0.00021798
0.000241191
0.000266428
0.00030745
0.000351719
0.000398914
0.000449705
0.000502656
0.000562467
0.000624978
0.000689981
0.000756486
0.000823498
0.000889978
0.000961024
0.00103301
0.00110402
0.00117287
0.00123857
0.0013007
0.00135762
0.00141516
0.00146775
0.00151322
0.0015538
0.00158134
0.00159615
0.00159902
0.0015891
0.00156783
0.0015365
0.00149317
0.00143692
0.00137102
0.00129734
0.00121735
0.00113311
0.00104715
0.000959044
0.000873366
0.000788275
0.00070522
0.000630926
0.000553258
0.000485732
0.000446794
0.000400518
0.000246655
0.000242075
0.000308004
0.000281444
0.000302903
0.000332279
0.000367347
0.000408621
0.000454814
0.000504793
0.000556739
0.000616232
0.000677547
0.000740057
0.000802918
0.000866378
0.000929864
0.00099787
0.00106598
0.00113173
0.00119505
0.0012544
0.00130997
0.00136085
0.00140994
0.00145572
0.00149459
0.00152588
0.00154703
0.00155562
0.0015522
0.0015378
0.0015132
0.00147844
0.00143486
0.0013782
0.00131242
0.00123952
0.00116162
0.00108022
0.000997363
0.000913309
0.000831363
0.000750772
0.00067249
0.000602417
0.000528556
0.00046641
0.000428686
0.000387614
0.000236504
0.000878988
0.000475761
0.000410732
0.000410559
0.000431875
0.000463077
0.00050119
0.000544725
0.000588872
0.000634031
0.000685164
0.000737842
0.00079105
0.000850987
0.000911052
0.000970206
0.00103425
0.00109594
0.00115525
0.00121171
0.00126333
0.00131082
0.00135377
0.00139478
0.00143197
0.00146314
0.00148703
0.00150254
0.00150414
0.00149521
0.00147495
0.00144541
0.0014076
0.00136226
0.00130835
0.00124267
0.00117154
0.00109595
0.00101798
0.000938953
0.000859294
0.000782464
0.000706777
0.000634235
0.000568208
0.000499378
0.000442776
0.000407814
0.000371654
0.000224772
0.000938524
0.000663251
0.000547083
0.00052156
0.000527628
0.000555047
0.00058913
0.0006276
0.000668589
0.00071239
0.000760049
0.000808161
0.000855722
0.000902717
0.000949776
0.00100448
0.00106169
0.00111618
0.0011676
0.00121566
0.00125877
0.0012982
0.00133363
0.00136493
0.00139322
0.00141585
0.00143219
0.00144209
0.0014413
0.00142513
0.00139983
0.00136646
0.00132573
0.00127842
0.00122569
0.0011643
0.00109497
0.00102247
0.000947868
0.000873398
0.00079903
0.000727943
0.000657757
0.000590452
0.000529722
0.000466448
0.000416068
0.000383444
0.000351685
0.000211141
0.000298181
0.000622038
0.000565523
0.000564318
0.00057839
0.000610971
0.000648357
0.000687531
0.000727638
0.000770536
0.00081399
0.0008571
0.000899451
0.00094048
0.000980006
0.00102058
0.0010704
0.00111703
0.00116026
0.00119975
0.00123545
0.001267
0.00129434
0.00131754
0.00133745
0.00135134
0.00135991
0.00136293
0.0013602
0.00134326
0.00131294
0.00127588
0.00123302
0.00118491
0.00113237
0.00107609
0.00101136
0.000942276
0.000872463
0.000803302
0.000734829
0.000668834
0.000603793
0.000543364
0.000487692
0.000430789
0.000385841
0.000357332
0.000328266
0.000196706
3.92192e-05
0.000415395
0.000451932
0.000505879
0.000558078
0.000604818
0.000654427
0.000700688
0.000745266
0.000788514
0.000830425
0.000870948
0.000910066
0.00094727
0.000982705
0.00101903
0.00105647
0.00109542
0.00113078
0.00116266
0.00119046
0.0012144
0.00123466
0.00125059
0.00126227
0.00126855
0.00127027
0.00126692
0.00125925
0.00124669
0.0012141
0.00117491
0.00113088
0.00108279
0.00103133
0.000977188
0.000920911
0.000858053
0.000793302
0.000729142
0.000665898
0.000606471
0.000548096
0.000494106
0.000444148
0.00039298
0.000354857
0.000328507
0.000302981
0.00018304
4.70311e-06
0.00017094
0.000269588
0.00036903
0.000455896
0.000530951
0.000596607
0.000656302
0.000711451
0.000763647
0.00081282
0.000858233
0.000900376
0.000939383
0.000974299
0.0010021
0.00102883
0.00105726
0.00108327
0.00110632
0.00112606
0.00114196
0.00115447
0.00116331
0.0011676
0.00116778
0.00116411
0.00115627
0.0011448
0.00112964
0.00110384
0.00106389
0.00102034
0.00097393
0.000925022
0.000874233
0.000821796
0.000768383
0.00071043
0.000652457
0.000595883
0.000542748
0.000490792
0.000442903
0.000398786
0.000353567
0.000320484
0.000298096
0.000274713
0.00016978
1.25463e-06
4.66394e-05
0.000121638
0.000211594
0.000309093
0.000398939
0.000480886
0.000554557
0.0006133
0.000668645
0.000723217
0.000774704
0.000822302
0.000866229
0.000904821
0.000931867
0.000956722
0.000979362
0.00099865
0.0010152
0.00102905
0.00103957
0.00104767
0.00105266
0.0010524
0.00104807
0.00104046
0.00102988
0.00101638
0.00100015
0.000980399
0.000941708
0.000900387
0.000856841
0.000811738
0.000765345
0.000718017
0.000669999
0.0006227
0.000572832
0.000523017
0.000476606
0.00043148
0.000389876
0.0003506
0.000312258
0.000285694
0.000265942
0.000245082
0.00015562
1.98003e-06
1.73215e-05
4.64596e-05
9.19235e-05
0.000158478
0.00024088
0.000326255
0.000396448
0.000461794
0.000522892
0.000578845
0.00063067
0.000678833
0.000723195
0.000759669
0.000791007
0.000819803
0.000843217
0.000862209
0.000878074
0.000890929
0.000900617
0.000907775
0.000912193
0.000910713
0.000904085
0.000894825
0.000883238
0.000869423
0.00085376
0.000835989
0.000802616
0.000765652
0.000727291
0.000687712
0.000647412
0.000606327
0.000565666
0.000524867
0.000484804
0.000444562
0.000404501
0.000366714
0.000332364
0.000299621
0.000267639
0.000246658
0.000230199
0.00021419
0.000139955
1.68492e-06
8.65414e-06
2.0314e-05
3.68609e-05
6.27215e-05
0.000105515
0.000157813
0.000217691
0.000279658
0.000339065
0.000395457
0.000448586
0.000498166
0.000546112
0.000579433
0.000608584
0.000634669
0.000657705
0.000677844
0.000695333
0.000710257
0.000722162
0.000731558
0.000738415
0.000739579
0.000733265
0.000725052
0.000715105
0.000703303
0.000690427
0.000675394
0.000646397
0.000616049
0.000585025
0.000552941
0.000520151
0.000486983
0.000454117
0.000421131
0.000389184
0.000357497
0.000327143
0.000297123
0.000269972
0.00024398
0.000219337
0.000203458
0.000191328
0.000181906
0.000122446
1.20192e-06
4.95684e-06
1.05137e-05
1.7502e-05
2.67776e-05
3.89986e-05
5.61752e-05
8.22872e-05
0.000119094
0.000159518
0.000203901
0.000249524
0.000294159
0.000330397
0.000363542
0.000393568
0.000421574
0.000446408
0.000469147
0.000489299
0.000506934
0.000521413
0.000533602
0.000543253
0.000547257
0.000544425
0.000540199
0.000534495
0.000527184
0.000518673
0.000501559
0.000481068
0.000459483
0.000437302
0.00041396
0.000390179
0.000365994
0.000341551
0.000317465
0.000293597
0.000270173
0.00024779
0.000225955
0.000205938
0.000186673
0.000169732
0.000160618
0.000153605
0.00014869
0.00010308
8.12927e-07
3.04848e-06
5.99423e-06
9.54076e-06
1.34914e-05
1.79136e-05
2.30095e-05
2.93316e-05
3.77833e-05
5.03085e-05
6.88893e-05
9.39185e-05
0.00012232
0.000148052
0.000173878
0.00019874
0.000222618
0.000245287
0.000266679
0.000286289
0.000304484
0.000320561
0.000334869
0.00034714
0.00035297
0.00035557
0.000356991
0.000356683
0.000350503
0.000341602
0.000331556
0.000320526
0.000308341
0.00029529
0.00028095
0.000266314
0.000251056
0.000235276
0.000219639
0.000204204
0.000188886
0.000173967
0.000159807
0.00014657
0.000134577
0.000125017
0.000120429
0.000117418
0.000116203
8.26093e-05
5.43149e-07
1.92198e-06
3.59403e-06
5.48873e-06
7.52474e-06
9.62165e-06
1.16214e-05
1.36412e-05
1.56943e-05
1.79082e-05
2.10054e-05
2.60006e-05
3.27169e-05
4.1415e-05
5.21921e-05
6.48489e-05
7.8903e-05
9.37645e-05
0.000109095
0.000123689
0.000137798
0.000150734
0.000162263
0.000171377
0.000178708
0.000184104
0.000187534
0.000189456
0.000189836
0.000188664
0.000186589
0.000183223
0.000178705
0.000173408
0.000166985
0.000159951
0.000152201
0.000144106
0.000135755
0.000127165
0.000118569
0.000110226
0.000102572
9.54761e-05
8.96527e-05
8.57266e-05
8.45042e-05
8.53297e-05
8.49816e-05
6.23077e-05
3.56199e-07
1.21745e-06
2.2132e-06
3.29962e-06
4.42051e-06
5.51796e-06
6.53823e-06
7.4111e-06
8.07258e-06
8.53103e-06
9.29505e-06
1.02826e-05
1.13573e-05
1.25852e-05
1.41248e-05
1.60906e-05
1.86706e-05
2.20234e-05
2.61297e-05
3.08953e-05
3.66146e-05
4.36547e-05
5.05551e-05
5.71513e-05
6.3206e-05
6.8651e-05
7.32567e-05
7.70291e-05
7.98643e-05
8.20719e-05
8.3597e-05
8.4119e-05
8.41503e-05
8.33424e-05
8.19572e-05
8.00375e-05
7.75035e-05
7.46029e-05
7.14034e-05
6.79962e-05
6.45534e-05
6.11579e-05
5.81225e-05
5.54986e-05
5.39634e-05
5.34369e-05
5.48814e-05
5.83091e-05
5.80852e-05
4.30808e-05
2.27723e-07
7.6267e-07
1.36495e-06
2.0079e-06
2.65712e-06
3.2746e-06
3.82139e-06
4.25967e-06
4.55214e-06
4.77332e-06
5.09552e-06
5.33466e-06
5.48083e-06
5.53573e-06
5.52983e-06
5.40727e-06
5.25964e-06
5.02539e-06
5.59646e-06
6.68158e-06
8.01925e-06
9.62664e-06
1.1453e-05
1.34835e-05
1.56871e-05
1.79275e-05
2.01214e-05
2.22826e-05
2.41829e-05
2.59389e-05
2.75298e-05
2.87947e-05
2.97815e-05
3.05062e-05
3.09589e-05
3.10934e-05
3.10287e-05
3.07605e-05
3.02715e-05
2.96564e-05
2.90433e-05
2.85237e-05
2.82945e-05
2.83803e-05
2.91085e-05
3.05139e-05
3.3433e-05
3.67254e-05
3.62765e-05
2.66297e-05
1.40501e-07
4.65297e-07
8.26093e-07
1.20699e-06
1.58751e-06
1.94399e-06
2.25098e-06
2.48245e-06
2.65428e-06
2.87018e-06
3.0216e-06
3.0964e-06
3.08106e-06
2.97051e-06
2.76029e-06
2.43802e-06
1.99101e-06
1.88283e-06
2.01645e-06
2.14685e-06
2.32545e-06
2.50198e-06
2.72504e-06
2.95164e-06
3.24345e-06
3.56967e-06
3.92217e-06
4.30988e-06
4.71128e-06
5.14212e-06
5.60086e-06
6.09877e-06
6.57483e-06
7.02221e-06
7.51477e-06
7.96032e-06
8.38579e-06
8.77512e-06
9.12978e-06
9.5357e-06
9.98982e-06
1.05512e-05
1.13391e-05
1.24729e-05
1.39759e-05
1.58907e-05
1.86183e-05
2.0794e-05
2.02699e-05
1.4116e-05
8.23072e-08
2.71259e-07
4.8011e-07
6.99583e-07
9.17499e-07
1.11923e-06
1.28839e-06
1.46327e-06
1.62307e-06
1.74462e-06
1.81872e-06
1.83645e-06
1.78964e-06
1.67031e-06
1.47061e-06
1.18541e-06
9.67026e-07
9.79661e-07
9.79887e-07
9.66851e-07
9.38569e-07
9.09762e-07
8.64677e-07
7.96974e-07
7.16049e-07
6.21286e-07
5.00362e-07
3.7882e-07
2.8826e-07
3.52887e-07
4.23659e-07
5.23644e-07
6.30631e-07
7.65066e-07
9.05252e-07
1.06862e-06
1.23166e-06
1.43701e-06
1.63827e-06
1.84712e-06
2.06928e-06
2.71453e-06
3.57877e-06
4.69299e-06
6.0557e-06
7.60184e-06
9.35531e-06
1.03213e-05
9.91289e-06
6.20045e-06
4.44734e-08
1.46712e-07
2.59834e-07
3.78464e-07
5.03951e-07
6.33191e-07
7.57163e-07
8.69104e-07
9.6184e-07
1.02824e-06
1.06134e-06
1.05428e-06
1.00065e-06
8.94312e-07
7.29229e-07
5.664e-07
5.62862e-07
5.48544e-07
5.22471e-07
4.87585e-07
4.37488e-07
3.70319e-07
2.84471e-07
1.78444e-07
5.29726e-08
5.68908e-08
6.25286e-08
6.85514e-08
7.53498e-08
8.7492e-08
1.02541e-07
1.20321e-07
1.47177e-07
1.77492e-07
2.15706e-07
2.6268e-07
3.13632e-07
3.80331e-07
4.5302e-07
5.28571e-07
6.17334e-07
7.10506e-07
8.0363e-07
1.49137e-06
2.37481e-06
3.29034e-06
4.05764e-06
4.48211e-06
4.0193e-06
2.09488e-06
2.26166e-08
7.59861e-08
1.37423e-07
2.05374e-07
2.77257e-07
3.49626e-07
4.18363e-07
4.78851e-07
5.26193e-07
5.55341e-07
5.61215e-07
5.38854e-07
4.8332e-07
3.89839e-07
3.33025e-07
3.30806e-07
3.20422e-07
3.00961e-07
2.71405e-07
2.30633e-07
1.77266e-07
1.09798e-07
2.65703e-08
2.33367e-08
2.34192e-08
2.32731e-08
2.30415e-08
2.2903e-08
2.30957e-08
2.48144e-08
2.83725e-08
3.34027e-08
4.00833e-08
4.98316e-08
6.27161e-08
7.78693e-08
9.52845e-08
1.17422e-07
1.42745e-07
1.69904e-07
1.98609e-07
2.27634e-07
2.55141e-07
3.4216e-07
8.00278e-07
1.22308e-06
1.58806e-06
1.63072e-06
1.21587e-06
5.83119e-07
9.79964e-09
3.44883e-08
6.40164e-08
9.71295e-08
1.31951e-07
1.66124e-07
1.96954e-07
2.21472e-07
2.36507e-07
2.38728e-07
2.24667e-07
1.9087e-07
1.72964e-07
1.76771e-07
1.75747e-07
1.69189e-07
1.56346e-07
1.36362e-07
1.08274e-07
7.10086e-08
2.34566e-08
1.21573e-08
1.1425e-08
1.04739e-08
9.32674e-09
8.03345e-09
6.75625e-09
5.83601e-09
5.07662e-09
4.75027e-09
5.18352e-09
6.53599e-09
8.84574e-09
1.24644e-08
1.7534e-08
2.3845e-08
3.13118e-08
3.97408e-08
4.88704e-08
5.83355e-08
6.76998e-08
7.59983e-08
8.22308e-08
8.48641e-08
2.4831e-07
4.35069e-07
5.00036e-07
4.40481e-07
2.90357e-07
1.37526e-07
2.3043e-09
9.90436e-09
1.99893e-08
3.0623e-08
4.04187e-08
4.79344e-08
5.17308e-08
5.02103e-08
5.30445e-08
5.92998e-08
6.42264e-08
6.73587e-08
6.82144e-08
6.63195e-08
6.11785e-08
5.22005e-08
3.86903e-08
1.99306e-08
6.03025e-09
5.74753e-09
5.3053e-09
4.71531e-09
3.92925e-09
2.97609e-09
1.88504e-09
6.39943e-10
5.58404e-12
5.90589e-12
6.39993e-12
7.10361e-12
8.23431e-12
1.08382e-11
1.37416e-11
1.68992e-11
2.20895e-09
5.0934e-09
8.46941e-09
1.21799e-08
1.58951e-08
1.91819e-08
2.19897e-08
2.38523e-08
2.46492e-08
2.33812e-08
2.71002e-08
7.8677e-08
8.85146e-08
7.1923e-08
4.32969e-08
1.99198e-08
4.74022e-11
5.96855e-10
1.24498e-09
1.59437e-09
1.68667e-09
1.4058e-09
7.00654e-10
4.4116e-10
5.22625e-10
5.97273e-10
6.59451e-10
7.0306e-10
7.22093e-10
7.12375e-10
6.71765e-10
5.87039e-10
4.45107e-10
2.37623e-10
1.21798e-12
1.20834e-12
1.1798e-12
1.13181e-12
1.06623e-12
9.89461e-13
9.11239e-13
8.44597e-13
8.07781e-13
8.17202e-13
8.812e-13
1.00832e-12
1.20615e-12
1.46966e-12
1.78771e-12
2.14873e-12
2.53616e-12
2.92699e-12
3.29375e-12
3.60646e-12
3.83011e-12
3.93308e-12
3.89318e-12
7.5122e-10
1.40846e-09
1.71722e-09
1.71576e-09
1.47738e-09
1.08081e-09
6.9631e-10
3.65264e-10
2.10805e-10
)
;

boundaryField
{
    AXIS
    {
        type            empty;
    }
    OUTLET
    {
        type            calculated;
        value           nonuniform List<scalar> 
25
(
0.000261959
0.000259676
0.000254416
0.000246655
0.000236504
0.000224772
0.000211141
0.000196706
0.00018304
0.00016978
0.00015562
0.000139955
0.000122446
0.00010308
8.26093e-05
6.23077e-05
4.30808e-05
2.66297e-05
1.4116e-05
6.20045e-06
2.09488e-06
5.83119e-07
1.37526e-07
1.99198e-08
2.10805e-10
)
;
    }
    COFLOW
    {
        type            calculated;
        value           uniform 0;
    }
    PILOT
    {
        type            calculated;
        value           uniform 4.66056e-22;
    }
    FUEL
    {
        type            calculated;
        value           uniform 0;
    }
    WALL
    {
        type            calculated;
        value           nonuniform List<scalar> 
50
(
4.74022e-11
5.96855e-10
1.24498e-09
1.59437e-09
1.68667e-09
1.4058e-09
7.00654e-10
4.4116e-10
5.22625e-10
5.97273e-10
6.59451e-10
7.0306e-10
7.22093e-10
7.12375e-10
6.71765e-10
5.87039e-10
4.45107e-10
2.37623e-10
1.21798e-12
1.20834e-12
1.1798e-12
1.13181e-12
1.06623e-12
9.89461e-13
9.11239e-13
8.44597e-13
8.07781e-13
8.17202e-13
8.812e-13
1.00832e-12
1.20615e-12
1.46966e-12
1.78771e-12
2.14873e-12
2.53616e-12
2.92699e-12
3.29375e-12
3.60646e-12
3.83011e-12
3.93308e-12
3.89318e-12
7.5122e-10
1.40846e-09
1.71722e-09
1.71576e-09
1.47738e-09
1.08081e-09
6.9631e-10
3.65264e-10
2.10805e-10
)
;
    }
    front
    {
        type            wedge;
    }
    back
    {
        type            wedge;
    }
}


// ************************************************************************* //
