/*--------------------------------*- C++ -*----------------------------------*\
| =========                 |                                                 |
| \\      /  F ield         | OpenFOAM: The Open Source CFD Toolbox           |
|  \\    /   O peration     | Version:  2.4.x                                 |
|   \\  /    A nd           | Web:      www.OpenFOAM.org                      |
|    \\/     M anipulation  |                                                 |
\*---------------------------------------------------------------------------*/
FoamFile
{
    version     2.0;
    format      ascii;
    class       volScalarField;
    location    "0.1";
    object      C2H5;
}
// * * * * * * * * * * * * * * * * * * * * * * * * * * * * * * * * * * * * * //

dimensions      [0 0 0 0 0 0 0];

internalField   nonuniform List<scalar> 
1250
(
5.00905e-09
1.8453e-08
3.30275e-08
4.92538e-08
6.97764e-08
9.63122e-08
1.29893e-07
1.70617e-07
2.16532e-07
2.63035e-07
3.1287e-07
3.63614e-07
4.17258e-07
4.71616e-07
5.26449e-07
5.81759e-07
6.3434e-07
6.85831e-07
7.38333e-07
7.91734e-07
8.44871e-07
8.97845e-07
9.4938e-07
1.00222e-06
1.04949e-06
1.08975e-06
1.12712e-06
1.15747e-06
1.18363e-06
1.20279e-06
1.21547e-06
1.22121e-06
1.22253e-06
1.22263e-06
1.21386e-06
1.19414e-06
1.16483e-06
1.12753e-06
1.08149e-06
1.02937e-06
9.70963e-07
9.09565e-07
8.46036e-07
7.75557e-07
7.13369e-07
6.43992e-07
5.73552e-07
5.33163e-07
4.81923e-07
3.22946e-07
5.87722e-09
2.0968e-08
3.64161e-08
5.42028e-08
7.7333e-08
1.0737e-07
1.45037e-07
1.89363e-07
2.34879e-07
2.83476e-07
3.34622e-07
3.86593e-07
4.40707e-07
4.95246e-07
5.50298e-07
6.04644e-07
6.56572e-07
7.07635e-07
7.59627e-07
8.12138e-07
8.64651e-07
9.1643e-07
9.66778e-07
1.01894e-06
1.06859e-06
1.10802e-06
1.14276e-06
1.17199e-06
1.19609e-06
1.21357e-06
1.22451e-06
1.22834e-06
1.22646e-06
1.22542e-06
1.21504e-06
1.19404e-06
1.16381e-06
1.12542e-06
1.07853e-06
1.02584e-06
9.66967e-07
9.05394e-07
8.41564e-07
7.71305e-07
7.09233e-07
6.40165e-07
5.69921e-07
5.29845e-07
4.79339e-07
3.20779e-07
8.64588e-09
2.81991e-08
4.64347e-08
6.97102e-08
1.0128e-07
1.41185e-07
1.86643e-07
2.33061e-07
2.83181e-07
3.35481e-07
3.88981e-07
4.42501e-07
4.96977e-07
5.51502e-07
6.05196e-07
6.57662e-07
7.07651e-07
7.57265e-07
8.0761e-07
8.58189e-07
9.08446e-07
9.57681e-07
1.00537e-06
1.05542e-06
1.10756e-06
1.14718e-06
1.17746e-06
1.20357e-06
1.22362e-06
1.23735e-06
1.2448e-06
1.24418e-06
1.23653e-06
1.23167e-06
1.21762e-06
1.19375e-06
1.16132e-06
1.12051e-06
1.07166e-06
1.01797e-06
9.58209e-07
8.96113e-07
8.31655e-07
7.61795e-07
7.00017e-07
6.31535e-07
5.62059e-07
5.2262e-07
4.73864e-07
3.15872e-07
1.73109e-08
4.60498e-08
7.46136e-08
1.16031e-07
1.65891e-07
2.15805e-07
2.68783e-07
3.23956e-07
3.78967e-07
4.34167e-07
4.88533e-07
5.41316e-07
5.93643e-07
6.45321e-07
6.9532e-07
7.43317e-07
7.89526e-07
8.35943e-07
8.82824e-07
9.29567e-07
9.75729e-07
1.02065e-06
1.06357e-06
1.1102e-06
1.15762e-06
1.20365e-06
1.22909e-06
1.24906e-06
1.2632e-06
1.27143e-06
1.27181e-06
1.26527e-06
1.25282e-06
1.23799e-06
1.21941e-06
1.19191e-06
1.15581e-06
1.11166e-06
1.0606e-06
1.00529e-06
9.44239e-07
8.81226e-07
8.16315e-07
7.47083e-07
6.86065e-07
6.18001e-07
5.49932e-07
5.11349e-07
4.65155e-07
3.08607e-07
5.47737e-08
1.14659e-07
1.83531e-07
2.5283e-07
3.19814e-07
3.83682e-07
4.4107e-07
4.98952e-07
5.51835e-07
6.02303e-07
6.49801e-07
6.95898e-07
7.40175e-07
7.82304e-07
8.23614e-07
8.64526e-07
9.04242e-07
9.44866e-07
9.85633e-07
1.02614e-06
1.06543e-06
1.10351e-06
1.13941e-06
1.17794e-06
1.2193e-06
1.25922e-06
1.29403e-06
1.30621e-06
1.31169e-06
1.31039e-06
1.30303e-06
1.28982e-06
1.26972e-06
1.24334e-06
1.21906e-06
1.18634e-06
1.14542e-06
1.09776e-06
1.04424e-06
9.86735e-07
9.24061e-07
8.60201e-07
7.95295e-07
7.27146e-07
6.66923e-07
5.99436e-07
5.34093e-07
4.95905e-07
4.53913e-07
2.99147e-07
5.88009e-07
5.32232e-07
5.62949e-07
6.00784e-07
6.42254e-07
6.85063e-07
7.21841e-07
7.6026e-07
7.93591e-07
8.24447e-07
8.58064e-07
8.95066e-07
9.33356e-07
9.64666e-07
9.93465e-07
1.02139e-06
1.05179e-06
1.08268e-06
1.11376e-06
1.14448e-06
1.17285e-06
1.19989e-06
1.22535e-06
1.25527e-06
1.28876e-06
1.32087e-06
1.34917e-06
1.36758e-06
1.36239e-06
1.35201e-06
1.33433e-06
1.31094e-06
1.28251e-06
1.24912e-06
1.21266e-06
1.17426e-06
1.12891e-06
1.07756e-06
1.02086e-06
9.60737e-07
8.96726e-07
8.3292e-07
7.68445e-07
7.01621e-07
6.42068e-07
5.76153e-07
5.1418e-07
4.77365e-07
4.39705e-07
2.88117e-07
1.38679e-06
1.30404e-06
1.18165e-06
1.11588e-06
1.08636e-06
1.09269e-06
1.08679e-06
1.08671e-06
1.09041e-06
1.10016e-06
1.11697e-06
1.1357e-06
1.15502e-06
1.17543e-06
1.19514e-06
1.20591e-06
1.22266e-06
1.23973e-06
1.25706e-06
1.27426e-06
1.28875e-06
1.30323e-06
1.31757e-06
1.33464e-06
1.35751e-06
1.37831e-06
1.39574e-06
1.40939e-06
1.40834e-06
1.38555e-06
1.35749e-06
1.32464e-06
1.2872e-06
1.2456e-06
1.20033e-06
1.15387e-06
1.1037e-06
1.0483e-06
9.88583e-07
9.26814e-07
8.62576e-07
7.99393e-07
7.35204e-07
6.69776e-07
6.12097e-07
5.48392e-07
4.90452e-07
4.55449e-07
4.21973e-07
2.76004e-07
4.74903e-07
1.32266e-06
1.46081e-06
1.4744e-06
1.45271e-06
1.45396e-06
1.43623e-06
1.41515e-06
1.39481e-06
1.38613e-06
1.38081e-06
1.37714e-06
1.3751e-06
1.374e-06
1.37369e-06
1.38182e-06
1.38472e-06
1.38861e-06
1.39234e-06
1.39551e-06
1.39806e-06
1.39977e-06
1.40061e-06
1.40338e-06
1.41543e-06
1.42375e-06
1.42899e-06
1.43048e-06
1.42776e-06
1.40448e-06
1.36528e-06
1.3224e-06
1.2767e-06
1.22835e-06
1.17685e-06
1.12322e-06
1.0677e-06
1.00887e-06
9.47487e-07
8.85256e-07
8.21249e-07
7.58335e-07
6.95162e-07
6.32854e-07
5.77346e-07
5.16286e-07
4.63153e-07
4.31144e-07
4.01207e-07
2.61508e-07
6.71879e-08
7.56743e-07
1.08978e-06
1.35291e-06
1.4974e-06
1.57117e-06
1.60727e-06
1.6083e-06
1.59891e-06
1.59332e-06
1.58149e-06
1.56726e-06
1.5525e-06
1.53757e-06
1.52386e-06
1.52587e-06
1.53093e-06
1.52086e-06
1.51043e-06
1.49966e-06
1.48776e-06
1.47566e-06
1.46345e-06
1.45064e-06
1.45053e-06
1.44623e-06
1.43912e-06
1.42774e-06
1.41374e-06
1.39564e-06
1.3498e-06
1.29926e-06
1.24616e-06
1.19158e-06
1.13512e-06
1.07807e-06
1.02072e-06
9.60545e-07
8.979e-07
8.35015e-07
7.71633e-07
7.10751e-07
6.49986e-07
5.90992e-07
5.38343e-07
4.80971e-07
4.33672e-07
4.03956e-07
3.78226e-07
2.41929e-07
7.93541e-09
2.11288e-07
4.90873e-07
8.3668e-07
1.13853e-06
1.35348e-06
1.49365e-06
1.57158e-06
1.63322e-06
1.67295e-06
1.69418e-06
1.69769e-06
1.69201e-06
1.68082e-06
1.66462e-06
1.65313e-06
1.6453e-06
1.62047e-06
1.59442e-06
1.56858e-06
1.54273e-06
1.51681e-06
1.49083e-06
1.46465e-06
1.44964e-06
1.43416e-06
1.41619e-06
1.39455e-06
1.37054e-06
1.34358e-06
1.30402e-06
1.24801e-06
1.19107e-06
1.13341e-06
1.07555e-06
1.0168e-06
9.58286e-07
9.00098e-07
8.38578e-07
7.77001e-07
7.15787e-07
6.57307e-07
5.99792e-07
5.45178e-07
4.95935e-07
4.42548e-07
4.0078e-07
3.74551e-07
3.51867e-07
2.22459e-07
1.02716e-09
3.12821e-08
1.29375e-07
3.41609e-07
6.25864e-07
8.94814e-07
1.12175e-06
1.28891e-06
1.41378e-06
1.49792e-06
1.5754e-06
1.61861e-06
1.64502e-06
1.65891e-06
1.66269e-06
1.66088e-06
1.65483e-06
1.6272e-06
1.59441e-06
1.56126e-06
1.52819e-06
1.49498e-06
1.46226e-06
1.42959e-06
1.40344e-06
1.37915e-06
1.35228e-06
1.32347e-06
1.29281e-06
1.25992e-06
1.22419e-06
1.16661e-06
1.10842e-06
1.05057e-06
9.9273e-07
9.35488e-07
8.78432e-07
8.22374e-07
7.67106e-07
7.09887e-07
6.52518e-07
5.97944e-07
5.44507e-07
4.94514e-07
4.48774e-07
4.0065e-07
3.65741e-07
3.42834e-07
3.17049e-07
2.01996e-07
1.15282e-09
8.83734e-09
2.7638e-08
8.35734e-08
2.08937e-07
4.15688e-07
6.42517e-07
8.2861e-07
9.98683e-07
1.13606e-06
1.24479e-06
1.32511e-06
1.3892e-06
1.43439e-06
1.46355e-06
1.48987e-06
1.499e-06
1.48647e-06
1.4665e-06
1.44295e-06
1.41656e-06
1.38792e-06
1.35829e-06
1.32758e-06
1.2973e-06
1.26797e-06
1.23671e-06
1.20392e-06
1.16978e-06
1.13472e-06
1.09849e-06
1.04546e-06
9.90334e-07
9.35836e-07
8.81988e-07
8.29157e-07
7.77119e-07
7.25709e-07
6.75409e-07
6.26832e-07
5.77881e-07
5.28121e-07
4.80129e-07
4.36179e-07
3.95651e-07
3.53648e-07
3.25014e-07
3.06314e-07
2.77637e-07
1.79596e-07
8.34837e-10
4.106e-09
9.69584e-09
2.03103e-08
4.63209e-08
1.09834e-07
2.12159e-07
3.51689e-07
5.07815e-07
6.55838e-07
7.89557e-07
9.02272e-07
9.97475e-07
1.07597e-06
1.1213e-06
1.15633e-06
1.17819e-06
1.18923e-06
1.19379e-06
1.19205e-06
1.18412e-06
1.17124e-06
1.15529e-06
1.13655e-06
1.11313e-06
1.08489e-06
1.0553e-06
1.02462e-06
9.9279e-07
9.6069e-07
9.27139e-07
8.80178e-07
8.3346e-07
7.87214e-07
7.41204e-07
6.95826e-07
6.51126e-07
6.07482e-07
5.64594e-07
5.23432e-07
4.8314e-07
4.44641e-07
4.05552e-07
3.68408e-07
3.34028e-07
3.00109e-07
2.78248e-07
2.60018e-07
2.35429e-07
1.55054e-07
5.61599e-10
2.2933e-09
4.83244e-09
8.32619e-09
1.40615e-08
2.41854e-08
4.4024e-08
8.28368e-08
1.47499e-07
2.28663e-07
3.23079e-07
4.21093e-07
5.14798e-07
5.89692e-07
6.53789e-07
7.08606e-07
7.55026e-07
7.90323e-07
8.20347e-07
8.42253e-07
8.56266e-07
8.63351e-07
8.65667e-07
8.63215e-07
8.5251e-07
8.33178e-07
8.12659e-07
7.90945e-07
7.67904e-07
7.44026e-07
7.12505e-07
6.78543e-07
6.44258e-07
6.10179e-07
5.7548e-07
5.41063e-07
5.06853e-07
4.73027e-07
4.40199e-07
4.08216e-07
3.76945e-07
3.47062e-07
3.17543e-07
2.90133e-07
2.64111e-07
2.38808e-07
2.23202e-07
2.08597e-07
1.90985e-07
1.28741e-07
3.7428e-10
1.40102e-09
2.76124e-09
4.46166e-09
6.50324e-09
9.11475e-09
1.28024e-08
1.87258e-08
2.89574e-08
4.69644e-08
7.6319e-08
1.168e-07
1.64488e-07
2.12658e-07
2.61905e-07
3.09638e-07
3.54898e-07
3.96353e-07
4.33925e-07
4.66673e-07
4.94619e-07
5.1735e-07
5.36307e-07
5.4973e-07
5.50451e-07
5.45524e-07
5.38957e-07
5.30061e-07
5.15678e-07
4.98835e-07
4.81039e-07
4.62314e-07
4.42547e-07
4.22177e-07
4.00577e-07
3.79033e-07
3.57027e-07
3.34698e-07
3.1258e-07
2.90805e-07
2.69322e-07
2.48503e-07
2.284e-07
2.09592e-07
1.92014e-07
1.76191e-07
1.6701e-07
1.57154e-07
1.47254e-07
1.01535e-07
2.50465e-10
8.87498e-10
1.66569e-09
2.56825e-09
3.58303e-09
4.70909e-09
5.91572e-09
7.3656e-09
9.22285e-09
1.18438e-08
1.58706e-08
2.19284e-08
3.08594e-08
4.33935e-08
5.98188e-08
7.99193e-08
1.02909e-07
1.27817e-07
1.53735e-07
1.78879e-07
2.03092e-07
2.25301e-07
2.45185e-07
2.58182e-07
2.67599e-07
2.74035e-07
2.77735e-07
2.78808e-07
2.77881e-07
2.74893e-07
2.70778e-07
2.65146e-07
2.58015e-07
2.49853e-07
2.40274e-07
2.29969e-07
2.18736e-07
2.0713e-07
1.95203e-07
1.82946e-07
1.70722e-07
1.58728e-07
1.47338e-07
1.3657e-07
1.27262e-07
1.19604e-07
1.15159e-07
1.11162e-07
1.05794e-07
7.51058e-08
1.66245e-10
5.69673e-10
1.04062e-09
1.56501e-09
2.12603e-09
2.70866e-09
3.30307e-09
3.89287e-09
4.46838e-09
5.07931e-09
5.82363e-09
6.75149e-09
7.93683e-09
9.51044e-09
1.16887e-08
1.46962e-08
1.88221e-08
2.43596e-08
3.1357e-08
3.96994e-08
4.92117e-08
5.95424e-08
6.97667e-08
7.94868e-08
8.83881e-08
9.63151e-08
1.03017e-07
1.08524e-07
1.12738e-07
1.1594e-07
1.18248e-07
1.19232e-07
1.19404e-07
1.1844e-07
1.16618e-07
1.14025e-07
1.10565e-07
1.06569e-07
1.021e-07
9.72841e-08
9.23846e-08
8.73756e-08
8.26668e-08
7.82917e-08
7.50668e-08
7.27611e-08
7.2265e-08
7.30731e-08
7.04449e-08
5.05974e-08
1.0853e-10
3.646e-10
6.56207e-10
9.74105e-10
1.30658e-09
1.64115e-09
1.96575e-09
2.26972e-09
2.54387e-09
2.79405e-09
3.03281e-09
3.24817e-09
3.44088e-09
3.61959e-09
3.81495e-09
4.01102e-09
4.29327e-09
4.64638e-09
5.5436e-09
6.87949e-09
8.56894e-09
1.06516e-08
1.30952e-08
1.58689e-08
1.89079e-08
2.20823e-08
2.52622e-08
2.84059e-08
3.12949e-08
3.40187e-08
3.65e-08
3.85666e-08
4.02718e-08
4.15849e-08
4.24938e-08
4.29455e-08
4.30799e-08
4.28996e-08
4.23667e-08
4.15949e-08
4.07494e-08
3.98776e-08
3.92375e-08
3.88029e-08
3.89436e-08
3.96493e-08
4.17689e-08
4.40255e-08
4.24964e-08
3.00921e-08
6.90473e-11
2.29447e-10
4.09964e-10
6.04996e-10
8.07305e-10
1.00859e-09
1.20008e-09
1.37299e-09
1.52507e-09
1.6673e-09
1.77982e-09
1.85678e-09
1.89003e-09
1.87899e-09
1.82413e-09
1.71989e-09
1.56069e-09
1.57514e-09
1.71381e-09
1.86084e-09
2.05941e-09
2.27394e-09
2.54752e-09
2.84914e-09
3.23597e-09
3.68639e-09
4.19656e-09
4.77984e-09
5.41872e-09
6.11506e-09
6.85862e-09
7.66514e-09
8.46139e-09
9.2303e-09
1.00372e-08
1.07749e-08
1.14808e-08
1.21202e-08
1.26845e-08
1.32692e-08
1.38523e-08
1.44773e-08
1.52714e-08
1.63224e-08
1.76847e-08
1.93759e-08
2.18153e-08
2.36218e-08
2.2555e-08
1.50156e-08
4.2259e-11
1.39812e-10
2.49299e-10
3.67504e-10
4.90111e-10
6.11883e-10
7.26958e-10
8.37474e-10
9.36601e-10
1.0173e-09
1.07482e-09
1.10453e-09
1.10226e-09
1.06391e-09
9.85445e-10
8.64313e-10
7.72847e-10
7.87526e-10
7.93741e-10
7.90895e-10
7.77457e-10
7.64857e-10
7.41874e-10
7.03677e-10
6.5819e-10
6.06746e-10
5.37946e-10
4.77334e-10
4.4588e-10
5.48108e-10
6.6235e-10
8.19256e-10
9.90338e-10
1.20357e-09
1.4298e-09
1.69352e-09
1.96116e-09
2.28573e-09
2.60881e-09
2.9447e-09
3.3027e-09
3.98274e-09
4.8373e-09
5.89329e-09
7.15421e-09
8.57988e-09
1.0174e-08
1.09325e-08
1.02199e-08
6.01619e-09
2.43491e-11
8.07107e-11
1.44301e-10
2.13346e-10
2.86588e-10
3.61629e-10
4.34826e-10
5.0265e-10
5.61342e-10
6.07153e-10
6.3643e-10
6.45562e-10
6.31183e-10
5.90067e-10
5.1906e-10
4.46484e-10
4.4582e-10
4.37009e-10
4.19287e-10
3.94463e-10
3.58398e-10
3.09698e-10
2.47143e-10
1.69572e-10
7.74871e-11
8.31331e-11
9.1173e-11
9.99455e-11
1.10088e-10
1.27705e-10
1.49825e-10
1.76413e-10
2.15968e-10
2.61509e-10
3.19012e-10
3.89965e-10
4.68473e-10
5.69575e-10
6.81507e-10
8.00312e-10
9.40068e-10
1.08993e-09
1.24396e-09
1.85437e-09
2.62183e-09
3.41341e-09
4.04099e-09
4.31947e-09
3.74332e-09
1.81707e-09
1.29229e-11
4.3462e-11
7.87519e-11
1.18032e-10
1.59985e-10
2.02823e-10
2.44395e-10
2.82279e-10
3.13894e-10
3.36573e-10
3.47639e-10
3.44462e-10
3.24431e-10
2.85027e-10
2.60905e-10
2.60221e-10
2.53351e-10
2.39593e-10
2.18169e-10
1.88221e-10
1.48692e-10
9.84366e-11
3.61887e-11
3.389e-11
3.39179e-11
3.36405e-11
3.32653e-11
3.30532e-11
3.33493e-11
3.57698e-11
4.08027e-11
4.80154e-11
5.76939e-11
7.17182e-11
9.02779e-11
1.12356e-10
1.38046e-10
1.7061e-10
2.08248e-10
2.49297e-10
2.93465e-10
3.39084e-10
3.834e-10
4.70794e-10
8.36819e-10
1.16466e-09
1.4315e-09
1.41894e-09
1.02047e-09
4.72512e-10
5.71073e-12
2.01312e-11
3.74864e-11
5.71501e-11
7.8155e-11
9.9271e-11
1.19085e-10
1.36034e-10
1.48441e-10
1.54544e-10
1.52507e-10
1.40505e-10
1.34973e-10
1.38415e-10
1.3821e-10
1.33818e-10
1.24668e-10
1.10107e-10
8.94057e-11
6.17494e-11
2.6301e-11
1.75737e-11
1.65209e-11
1.51522e-11
1.35009e-11
1.1639e-11
9.79893e-12
8.43823e-12
7.32981e-12
6.85735e-12
7.4821e-12
9.42995e-12
1.27607e-11
1.79481e-11
2.51949e-11
3.42481e-11
4.50132e-11
5.72428e-11
7.05902e-11
8.45537e-11
9.8514e-11
1.11034e-10
1.20597e-10
1.24901e-10
2.47111e-10
3.82592e-10
4.20626e-10
3.61185e-10
2.33762e-10
1.09562e-10
1.39782e-12
6.03634e-12
1.23253e-11
1.91981e-11
2.59266e-11
3.17574e-11
3.59461e-11
3.76506e-11
4.12759e-11
4.62668e-11
5.02745e-11
5.29437e-11
5.39062e-11
5.27988e-11
4.92418e-11
4.27857e-11
3.29026e-11
1.90478e-11
8.6835e-12
8.27783e-12
7.64165e-12
6.79304e-12
5.66254e-12
4.29207e-12
2.72368e-12
9.33815e-13
2.20248e-14
2.32986e-14
2.52541e-14
2.80408e-14
3.24893e-14
4.25609e-14
5.38144e-14
6.60768e-14
3.21546e-12
7.361e-12
1.22223e-11
1.75798e-11
2.29605e-11
2.77368e-11
3.18395e-11
3.45926e-11
3.58353e-11
3.41136e-11
3.50645e-11
7.11192e-11
7.50171e-11
5.93268e-11
3.53082e-11
1.61493e-11
3.25304e-14
4.63128e-13
9.74913e-13
1.27188e-12
1.38612e-12
1.23021e-12
7.65949e-13
6.32849e-13
7.5e-13
8.57462e-13
9.47106e-13
1.01015e-12
1.03794e-12
1.02445e-12
9.66568e-13
8.45272e-13
6.41755e-13
3.44056e-13
4.79965e-15
4.76144e-15
4.6487e-15
4.45932e-15
4.20067e-15
3.89801e-15
3.58973e-15
3.32719e-15
3.18226e-15
3.21962e-15
3.47217e-15
3.97371e-15
4.75435e-15
5.79456e-15
7.05057e-15
8.47704e-15
1.00087e-14
1.15546e-14
1.30061e-14
1.42441e-14
1.51296e-14
1.55369e-14
1.5378e-14
1.09308e-12
2.03863e-12
2.47961e-12
2.47281e-12
2.12564e-12
1.55271e-12
9.99167e-13
5.23748e-13
3.02023e-13
)
;

boundaryField
{
    AXIS
    {
        type            empty;
    }
    OUTLET
    {
        type            calculated;
        value           nonuniform List<scalar> 
25
(
3.22946e-07
3.20779e-07
3.15872e-07
3.08607e-07
2.99147e-07
2.88117e-07
2.76004e-07
2.61508e-07
2.41929e-07
2.22459e-07
2.01996e-07
1.79596e-07
1.55054e-07
1.28741e-07
1.01535e-07
7.51058e-08
5.05974e-08
3.00921e-08
1.50156e-08
6.01619e-09
1.81707e-09
4.72512e-10
1.09562e-10
1.61493e-11
3.02023e-13
)
;
    }
    COFLOW
    {
        type            calculated;
        value           uniform 0;
    }
    PILOT
    {
        type            calculated;
        value           uniform 9.40615e-27;
    }
    FUEL
    {
        type            calculated;
        value           uniform 0;
    }
    WALL
    {
        type            calculated;
        value           nonuniform List<scalar> 
50
(
3.25304e-14
4.63128e-13
9.74913e-13
1.27188e-12
1.38612e-12
1.23021e-12
7.65949e-13
6.32849e-13
7.5e-13
8.57462e-13
9.47106e-13
1.01015e-12
1.03794e-12
1.02445e-12
9.66568e-13
8.45272e-13
6.41755e-13
3.44056e-13
4.79965e-15
4.76144e-15
4.6487e-15
4.45932e-15
4.20067e-15
3.89801e-15
3.58973e-15
3.32719e-15
3.18226e-15
3.21962e-15
3.47217e-15
3.97371e-15
4.75435e-15
5.79456e-15
7.05057e-15
8.47704e-15
1.00087e-14
1.15546e-14
1.30061e-14
1.42441e-14
1.51296e-14
1.55369e-14
1.5378e-14
1.09308e-12
2.03863e-12
2.47961e-12
2.47281e-12
2.12564e-12
1.55271e-12
9.99167e-13
5.23748e-13
3.02023e-13
)
;
    }
    front
    {
        type            wedge;
    }
    back
    {
        type            wedge;
    }
}


// ************************************************************************* //
