/*--------------------------------*- C++ -*----------------------------------*\
| =========                 |                                                 |
| \\      /  F ield         | OpenFOAM: The Open Source CFD Toolbox           |
|  \\    /   O peration     | Version:  2.4.x                                 |
|   \\  /    A nd           | Web:      www.OpenFOAM.org                      |
|    \\/     M anipulation  |                                                 |
\*---------------------------------------------------------------------------*/
FoamFile
{
    version     2.0;
    format      ascii;
    class       volScalarField;
    location    "0.1";
    object      C2H6;
}
// * * * * * * * * * * * * * * * * * * * * * * * * * * * * * * * * * * * * * //

dimensions      [0 0 0 0 0 0 0];

internalField   nonuniform List<scalar> 
1250
(
8.50981e-06
3.02274e-05
5.09841e-05
6.97822e-05
8.82997e-05
0.00010711
0.000126727
0.000147388
0.000169743
0.000196456
0.000225517
0.000257815
0.000291521
0.000325635
0.000359004
0.00039275
0.000427247
0.000463387
0.000497664
0.000530428
0.000560677
0.000588929
0.00061439
0.00064025
0.00066126
0.000675334
0.000683697
0.000685093
0.000681181
0.000671311
0.000656293
0.000636891
0.000612311
0.00058149
0.000546961
0.000509431
0.000470232
0.000430125
0.000390114
0.000350797
0.000312711
0.000276636
0.0002431
0.000211188
0.000183745
0.000156328
0.000133826
0.000122207
0.000110009
6.81003e-05
1.01135e-05
3.4219e-05
5.5325e-05
7.42644e-05
9.28082e-05
0.000111683
0.000131358
0.000151952
0.000176896
0.000204021
0.000233369
0.000265726
0.000299525
0.000333019
0.000366215
0.000399383
0.000433539
0.000468828
0.000502585
0.000534363
0.000564043
0.000591427
0.000616005
0.000640829
0.00066113
0.000674544
0.00068161
0.000682423
0.000677617
0.000667094
0.000651624
0.000631751
0.000607272
0.000576378
0.00054182
0.000504435
0.000465467
0.000425691
0.000386018
0.000347155
0.000309464
0.000273959
0.000240725
0.000209282
0.000182129
0.000155066
0.000132794
0.000121356
0.00010944
6.75402e-05
1.52877e-05
4.54969e-05
6.69204e-05
8.5833e-05
0.000104131
0.000122528
0.000143186
0.000167822
0.000194251
0.000221472
0.000251555
0.000283974
0.000316915
0.000349541
0.000382122
0.000413949
0.000447054
0.00048073
0.000512769
0.000542833
0.000570863
0.000596323
0.000619013
0.000641325
0.000660252
0.000672386
0.000677204
0.000676539
0.000669956
0.000658045
0.000641664
0.000620692
0.000596168
0.000565357
0.000530673
0.000493581
0.000455067
0.000416052
0.00037701
0.000339203
0.000302222
0.000267902
0.000235336
0.000204905
0.000178393
0.000152152
0.000130731
0.000119716
0.000108498
6.62161e-05
3.16549e-05
7.0399e-05
9.01181e-05
0.000106346
0.000124573
0.000146988
0.000171077
0.000196509
0.000223097
0.000250252
0.000280702
0.000311935
0.00034346
0.000374842
0.000405459
0.000434937
0.00046633
0.000497384
0.000526879
0.000554397
0.000579457
0.000602052
0.000621481
0.000640454
0.000656212
0.000667843
0.00067022
0.000666688
0.000657747
0.000644218
0.000625978
0.00060396
0.000578761
0.000548839
0.000514222
0.000477563
0.000439845
0.000401702
0.000363878
0.000327264
0.000291731
0.000258772
0.000227515
0.000198444
0.000173139
0.000148044
0.000127452
0.00011695
0.000106655
6.42619e-05
9.79402e-05
0.000130355
0.000132998
0.000149828
0.000169683
0.000191467
0.000214632
0.000239624
0.000265113
0.000290684
0.000319935
0.000349186
0.000378032
0.000406106
0.000433497
0.000460046
0.000488719
0.000516601
0.000542293
0.000565999
0.000587055
0.000605678
0.00062166
0.000636149
0.00064812
0.000656165
0.000659288
0.000652561
0.000640923
0.000624857
0.000605022
0.000581881
0.000555684
0.000527169
0.000492982
0.000456989
0.000420141
0.000383278
0.000346954
0.000311921
0.00027828
0.000246885
0.000217364
0.000189954
0.000166138
0.00014234
0.000123325
0.000112989
0.000104014
6.16712e-05
0.000412443
0.000251541
0.000225485
0.00022814
0.000240575
0.000257442
0.000276616
0.000298128
0.000319511
0.000341234
0.000366069
0.000391034
0.000415661
0.000440155
0.00046363
0.00048619
0.000511169
0.000534138
0.000555236
0.000574379
0.000590829
0.000604928
0.000616616
0.000626586
0.00063377
0.000637702
0.000638093
0.000633256
0.000618733
0.00060056
0.000578687
0.000554096
0.000527286
0.000498681
0.00046752
0.000432159
0.000396611
0.000361205
0.000326835
0.000293798
0.000262123
0.000232808
0.000205163
0.000179842
0.000157501
0.000135342
0.000117958
0.000108314
0.000100392
5.86559e-05
0.000429882
0.000377467
0.000326009
0.000311771
0.000312652
0.000325235
0.000339262
0.000355393
0.000372645
0.000391327
0.000411844
0.000432309
0.000452208
0.000471607
0.000490337
0.000508733
0.000528276
0.000545988
0.000561833
0.000575779
0.000587224
0.000596739
0.000604241
0.000609233
0.00061186
0.000611722
0.000608667
0.000602746
0.000590556
0.000569906
0.000546612
0.000521195
0.000494044
0.000465485
0.000436055
0.000403845
0.000369783
0.000336395
0.00030392
0.000273079
0.000243691
0.00021673
0.00019132
0.000167953
0.000147464
0.000127115
0.000111618
0.000102505
9.54292e-05
5.49652e-05
9.47501e-05
0.000333788
0.000336874
0.000343472
0.000350585
0.000365536
0.000380549
0.000395694
0.000410982
0.000427431
0.000443922
0.000460138
0.000475946
0.000491155
0.000505688
0.000520613
0.00053473
0.000546895
0.000557406
0.000566187
0.000573268
0.000578523
0.000581972
0.000583253
0.000581736
0.000577604
0.000571229
0.000562618
0.000551801
0.000533265
0.000508927
0.000483067
0.000456042
0.000428116
0.000399811
0.000371262
0.000340207
0.000308915
0.000278902
0.000250547
0.000223783
0.000199063
0.000175709
0.000154804
0.000136109
0.000117886
0.000103984
9.59538e-05
8.92598e-05
5.11822e-05
8.91629e-06
0.000197576
0.000248774
0.000294915
0.000329596
0.000356214
0.000380564
0.000400789
0.000418968
0.000434942
0.000450115
0.000464519
0.000478209
0.000490986
0.000502941
0.000514565
0.000525062
0.00053275
0.000538935
0.000543756
0.000546962
0.000548646
0.00054891
0.0005474
0.000542283
0.000535102
0.000526212
0.000515546
0.000503353
0.000489547
0.000465706
0.000440228
0.000414064
0.000387435
0.00036072
0.00033402
0.00030751
0.000279516
0.000252224
0.000226421
0.000202064
0.000180061
0.000159299
0.000140754
0.000124076
0.000107683
9.58781e-05
8.84006e-05
8.22623e-05
4.84699e-05
8.72156e-07
6.84924e-05
0.000131235
0.000195101
0.000250987
0.000296625
0.000333844
0.000364531
0.000390229
0.000411795
0.000431372
0.000448467
0.000463744
0.000477448
0.000489182
0.000496248
0.000502622
0.000506206
0.0005084
0.000509598
0.000509587
0.000508137
0.000505495
0.000501506
0.000494096
0.00048494
0.000474523
0.000462847
0.000450052
0.0004362
0.00041775
0.000393468
0.000368835
0.000344164
0.000319524
0.000295298
0.000271363
0.000247994
0.000224043
0.000201158
0.000179729
0.000160355
0.00014205
0.000125689
0.00011109
9.66953e-05
8.64825e-05
8.01037e-05
7.42267e-05
4.5708e-05
2.77028e-07
1.58738e-05
5.02958e-05
9.82106e-05
0.000153106
0.000205138
0.000251825
0.000292039
0.000321307
0.000346415
0.000370618
0.000392352
0.000411763
0.000428931
0.000443106
0.000450024
0.000455966
0.000458103
0.00045838
0.000457693
0.000456063
0.000453181
0.000449554
0.00044481
0.000436847
0.000426879
0.000416013
0.000404336
0.000391855
0.000378743
0.00036459
0.000342446
0.000320277
0.000298109
0.000276316
0.000254872
0.000233944
0.000213486
0.000194091
0.000174687
0.000156112
0.00013949
0.00012385
0.000109838
9.70315e-05
8.49259e-05
7.67387e-05
7.11063e-05
6.6666e-05
4.2498e-05
5.52275e-07
5.59588e-06
1.64485e-05
3.61797e-05
6.77954e-05
0.000110272
0.000155174
0.000192355
0.000225385
0.000254826
0.000281272
0.00030436
0.000325342
0.000343929
0.00035764
0.000367977
0.000376132
0.000380572
0.000382919
0.000383774
0.000383333
0.000381573
0.000378889
0.000375193
0.000368471
0.00035917
0.000349142
0.000338529
0.000327381
0.000315847
0.000303813
0.000285694
0.000266897
0.000248265
0.000229862
0.000211831
0.000194127
0.000177341
0.000161031
0.000145523
0.000130604
0.000116614
0.000103819
9.24723e-05
8.19449e-05
7.2012e-05
6.56899e-05
6.09836e-05
5.87273e-05
3.87093e-05
5.20098e-07
2.78338e-06
6.80483e-06
1.27608e-05
2.28105e-05
4.13568e-05
6.49764e-05
9.30916e-05
0.000122857
0.000151558
0.000178279
0.000202399
0.00022458
0.00024526
0.000257444
0.000267505
0.000275604
0.000282001
0.000286919
0.000290461
0.000292883
0.000293901
0.000293815
0.000292643
0.0002889
0.000281743
0.000274001
0.000265774
0.000257033
0.000248112
0.000238582
0.000223839
0.000209122
0.000194721
0.000180451
0.00016639
0.000152659
0.000139496
0.000126697
0.000114688
0.000103119
9.24277e-05
8.23316e-05
7.36935e-05
6.55768e-05
5.80002e-05
5.32141e-05
5.04345e-05
5.02524e-05
3.41657e-05
3.83062e-07
1.59811e-06
3.4469e-06
5.79874e-06
8.93317e-06
1.32533e-05
1.97534e-05
3.02459e-05
4.55967e-05
6.23591e-05
8.11231e-05
0.000100552
0.000119549
0.000134822
0.000148249
0.000159851
0.000170333
0.000178983
0.000186464
0.000192592
0.000197493
0.000200989
0.000203517
0.000204899
0.000203933
0.000200163
0.000195836
0.000190959
0.000185521
0.000179725
0.000170812
0.00016093
0.000150967
0.000141107
0.000131174
0.000121392
0.000111784
0.000102386
9.33648e-05
8.46845e-05
7.64101e-05
6.8733e-05
6.14907e-05
5.50851e-05
4.90825e-05
4.41236e-05
4.17943e-05
4.0723e-05
4.13086e-05
2.88776e-05
2.61007e-07
9.82643e-07
1.94029e-06
3.09314e-06
4.37574e-06
5.80812e-06
7.46714e-06
9.56052e-06
1.24355e-05
1.68273e-05
2.35334e-05
3.29899e-05
4.40278e-05
5.39133e-05
6.37914e-05
7.3169e-05
8.20177e-05
9.02024e-05
9.76942e-05
0.000104273
0.000110201
0.000115081
0.000119135
0.00012233
0.000123371
0.000123138
0.00012239
0.000120925
0.000117276
0.000112683
0.000107768
0.000102646
9.72471e-05
9.16811e-05
8.58284e-05
8.00223e-05
7.41799e-05
6.83277e-05
6.27013e-05
5.73136e-05
5.2109e-05
4.71778e-05
4.26367e-05
3.85188e-05
3.49527e-05
3.2342e-05
3.13583e-05
3.13292e-05
3.23056e-05
2.30597e-05
1.7419e-07
6.1697e-07
1.15443e-06
1.76097e-06
2.40588e-06
3.05843e-06
3.66603e-06
4.2561e-06
4.82848e-06
5.4146e-06
6.29721e-06
7.92963e-06
1.01581e-05
1.30786e-05
1.67212e-05
2.10118e-05
2.57641e-05
3.0756e-05
3.58481e-05
4.0581e-05
4.50615e-05
4.90257e-05
5.23952e-05
5.52707e-05
5.75343e-05
5.90309e-05
5.97676e-05
5.99469e-05
5.95545e-05
5.86013e-05
5.73364e-05
5.56466e-05
5.36019e-05
5.13449e-05
4.87747e-05
4.607e-05
4.32147e-05
4.03174e-05
3.74194e-05
3.45339e-05
3.17193e-05
2.90674e-05
2.67074e-05
2.45922e-05
2.29429e-05
2.19824e-05
2.19249e-05
2.27975e-05
2.34484e-05
1.72121e-05
1.13473e-07
3.87694e-07
7.03942e-07
1.04654e-06
1.39502e-06
1.7278e-06
2.02413e-06
2.25846e-06
2.40728e-06
2.46487e-06
2.65644e-06
2.93986e-06
3.24702e-06
3.59585e-06
4.02965e-06
4.57712e-06
5.28841e-06
6.20986e-06
7.3323e-06
8.62018e-06
1.02387e-05
1.23755e-05
1.4485e-05
1.65022e-05
1.83439e-05
1.99751e-05
2.13188e-05
2.23733e-05
2.31023e-05
2.36041e-05
2.38849e-05
2.3841e-05
2.36474e-05
2.31971e-05
2.25775e-05
2.18084e-05
2.08732e-05
1.9851e-05
1.87696e-05
1.76566e-05
1.65611e-05
1.55226e-05
1.46276e-05
1.3892e-05
1.35207e-05
1.3493e-05
1.41055e-05
1.546e-05
1.57742e-05
1.16547e-05
7.16995e-08
2.39876e-07
4.28316e-07
6.27525e-07
8.25156e-07
1.00742e-06
1.15997e-06
1.26861e-06
1.319e-06
1.34668e-06
1.43264e-06
1.49188e-06
1.52087e-06
1.51935e-06
1.4943e-06
1.42718e-06
1.33966e-06
1.21106e-06
1.33408e-06
1.61639e-06
1.96893e-06
2.39764e-06
2.89039e-06
3.44258e-06
4.04371e-06
4.65587e-06
5.25248e-06
5.83233e-06
6.33228e-06
6.78252e-06
7.17869e-06
7.47647e-06
7.69143e-06
7.82779e-06
7.8846e-06
7.8531e-06
7.76774e-06
7.63185e-06
7.44099e-06
7.22483e-06
7.01969e-06
6.85791e-06
6.79289e-06
6.83319e-06
7.07832e-06
7.5439e-06
8.47812e-06
9.57461e-06
9.60595e-06
6.98105e-06
4.34564e-08
1.43691e-07
2.54293e-07
3.69582e-07
4.82243e-07
5.83786e-07
6.65026e-07
7.16499e-07
7.47071e-07
8.04181e-07
8.41537e-07
8.55425e-07
8.42159e-07
7.99522e-07
7.2532e-07
6.15473e-07
4.65683e-07
4.20825e-07
4.52712e-07
4.83964e-07
5.27185e-07
5.70026e-07
6.24249e-07
6.79198e-07
7.49644e-07
8.2762e-07
9.10633e-07
1.00048e-06
1.09157e-06
1.18714e-06
1.28703e-06
1.3944e-06
1.49511e-06
1.58781e-06
1.6891e-06
1.77824e-06
1.86232e-06
1.93883e-06
2.00925e-06
2.095e-06
2.19843e-06
2.33736e-06
2.54425e-06
2.8555e-06
3.2767e-06
3.82277e-06
4.61174e-06
5.26901e-06
5.18445e-06
3.54228e-06
2.47815e-08
8.14992e-08
1.43623e-07
2.07806e-07
2.69686e-07
3.24034e-07
3.64992e-07
4.10832e-07
4.5384e-07
4.85205e-07
5.02179e-07
5.02077e-07
4.82429e-07
4.40801e-07
3.74779e-07
2.82675e-07
2.12039e-07
2.14973e-07
2.15064e-07
2.12105e-07
2.0563e-07
1.9906e-07
1.88563e-07
1.72586e-07
1.53131e-07
1.29759e-07
9.9637e-08
6.79002e-08
4.25845e-08
5.29213e-08
6.43543e-08
8.07614e-08
9.8496e-08
1.2118e-07
1.45072e-07
1.73377e-07
2.01831e-07
2.38098e-07
2.73851e-07
3.11319e-07
3.51549e-07
5.0629e-07
7.21579e-07
1.00696e-06
1.36259e-06
1.77203e-06
2.24459e-06
2.51717e-06
2.42509e-06
1.4758e-06
1.28254e-08
4.2176e-08
7.42138e-08
1.06963e-07
1.41601e-07
1.77526e-07
2.11664e-07
2.42023e-07
2.66484e-07
2.82942e-07
2.89334e-07
2.83626e-07
2.6391e-07
2.28348e-07
1.75129e-07
1.23427e-07
1.22506e-07
1.19191e-07
1.13263e-07
1.05487e-07
9.42517e-08
7.9117e-08
5.97046e-08
3.56542e-08
7.10287e-09
7.6706e-09
8.48975e-09
9.36527e-09
1.03551e-08
1.21384e-08
1.43508e-08
1.69734e-08
2.09949e-08
2.55639e-08
3.13978e-08
3.86571e-08
4.65988e-08
5.71683e-08
6.87963e-08
8.09827e-08
9.5512e-08
1.10911e-07
1.26416e-07
2.92999e-07
5.11127e-07
7.40334e-07
9.35655e-07
1.04565e-06
9.33626e-07
4.72218e-07
6.32778e-09
2.12493e-08
3.83914e-08
5.72844e-08
7.71612e-08
9.70044e-08
1.15601e-07
1.31594e-07
1.43542e-07
1.4996e-07
1.49351e-07
1.40249e-07
1.212e-07
9.07885e-08
7.24441e-08
7.18574e-08
6.94641e-08
6.50617e-08
5.84242e-08
4.93015e-08
3.73868e-08
2.23443e-08
3.80238e-09
3.06263e-09
3.08393e-09
3.07412e-09
3.05203e-09
3.0417e-09
3.07529e-09
3.32157e-09
3.82262e-09
4.52567e-09
5.45899e-09
6.83508e-09
8.66897e-09
1.08373e-08
1.33446e-08
1.65756e-08
2.03045e-08
2.43325e-08
2.86205e-08
3.29881e-08
3.71499e-08
5.59182e-08
1.64263e-07
2.65308e-07
3.52846e-07
3.63975e-07
2.68897e-07
1.26911e-07
2.7076e-09
9.51975e-09
1.76362e-08
2.66799e-08
3.60951e-08
4.51882e-08
5.31658e-08
5.91559e-08
6.2228e-08
6.14036e-08
5.56635e-08
4.39904e-08
3.75973e-08
3.83737e-08
3.8083e-08
3.65699e-08
3.36686e-08
2.91901e-08
2.29213e-08
1.46248e-08
4.05517e-09
1.58382e-09
1.48851e-09
1.36468e-09
1.21531e-09
1.04689e-09
8.80661e-10
7.6356e-10
6.66257e-10
6.25133e-10
6.84029e-10
8.64992e-10
1.1741e-09
1.66239e-09
2.35149e-09
3.21301e-09
4.23663e-09
5.39685e-09
6.65836e-09
7.97042e-09
9.27147e-09
1.04267e-08
1.12904e-08
1.16404e-08
4.92086e-08
9.23164e-08
1.07747e-07
9.51462e-08
6.26453e-08
2.96283e-08
6.19807e-10
2.6556e-09
5.31667e-09
8.04972e-09
1.04473e-08
1.20846e-08
1.25346e-08
1.13277e-08
1.15241e-08
1.28698e-08
1.39205e-08
1.45737e-08
1.47233e-08
1.4265e-08
1.309e-08
1.10684e-08
8.04718e-09
3.86811e-09
7.84214e-10
7.47441e-10
6.89875e-10
6.13091e-10
5.10807e-10
3.86799e-10
2.44863e-10
8.2882e-11
3.40244e-13
3.59933e-13
3.90159e-13
4.33237e-13
5.02796e-13
6.64809e-13
8.45625e-13
1.04252e-12
2.89988e-10
6.71515e-10
1.11921e-09
1.61208e-09
2.10592e-09
2.54269e-09
2.91412e-09
3.15699e-09
3.25452e-09
3.0729e-09
4.13129e-09
1.59276e-08
1.85173e-08
1.52208e-08
9.19741e-09
4.23835e-09
1.1593e-11
1.29648e-10
2.69283e-10
3.41787e-10
3.5622e-10
2.86979e-10
1.22722e-10
5.72682e-11
6.78517e-11
7.75519e-11
8.5634e-11
9.13044e-11
9.37811e-11
9.25206e-11
8.72434e-11
7.62297e-11
5.77779e-11
3.08046e-11
7.41355e-14
7.35447e-14
7.18025e-14
6.88767e-14
6.48811e-14
6.02058e-14
5.54441e-14
5.1389e-14
4.91508e-14
4.97285e-14
5.36303e-14
6.13786e-14
7.3439e-14
8.95105e-14
1.08918e-13
1.3096e-13
1.5463e-13
1.78523e-13
2.00958e-13
2.20094e-13
2.33782e-13
2.40078e-13
2.37619e-13
9.76337e-11
1.83226e-10
2.23354e-10
2.23064e-10
1.91965e-10
1.40355e-10
9.038e-11
4.73924e-11
2.73487e-11
)
;

boundaryField
{
    AXIS
    {
        type            empty;
    }
    OUTLET
    {
        type            calculated;
        value           nonuniform List<scalar> 
25
(
6.81003e-05
6.75402e-05
6.62161e-05
6.42619e-05
6.16712e-05
5.86559e-05
5.49652e-05
5.11822e-05
4.84699e-05
4.5708e-05
4.2498e-05
3.87093e-05
3.41657e-05
2.88776e-05
2.30597e-05
1.72121e-05
1.16547e-05
6.98105e-06
3.54228e-06
1.4758e-06
4.72218e-07
1.26911e-07
2.96283e-08
4.23835e-09
2.73487e-11
)
;
    }
    COFLOW
    {
        type            calculated;
        value           uniform 0;
    }
    PILOT
    {
        type            calculated;
        value           uniform 2.84215e-28;
    }
    FUEL
    {
        type            calculated;
        value           uniform 0;
    }
    WALL
    {
        type            calculated;
        value           nonuniform List<scalar> 
50
(
1.1593e-11
1.29648e-10
2.69283e-10
3.41787e-10
3.5622e-10
2.86979e-10
1.22722e-10
5.72682e-11
6.78517e-11
7.75519e-11
8.5634e-11
9.13044e-11
9.37811e-11
9.25206e-11
8.72434e-11
7.62297e-11
5.77779e-11
3.08046e-11
7.41355e-14
7.35447e-14
7.18025e-14
6.88767e-14
6.48811e-14
6.02058e-14
5.54441e-14
5.1389e-14
4.91508e-14
4.97285e-14
5.36303e-14
6.13786e-14
7.3439e-14
8.95105e-14
1.08918e-13
1.3096e-13
1.5463e-13
1.78523e-13
2.00958e-13
2.20094e-13
2.33782e-13
2.40078e-13
2.37619e-13
9.76337e-11
1.83226e-10
2.23354e-10
2.23064e-10
1.91965e-10
1.40355e-10
9.038e-11
4.73924e-11
2.73487e-11
)
;
    }
    front
    {
        type            wedge;
    }
    back
    {
        type            wedge;
    }
}


// ************************************************************************* //
