/*--------------------------------*- C++ -*----------------------------------*\
| =========                 |                                                 |
| \\      /  F ield         | OpenFOAM: The Open Source CFD Toolbox           |
|  \\    /   O peration     | Version:  2.4.x                                 |
|   \\  /    A nd           | Web:      www.OpenFOAM.org                      |
|    \\/     M anipulation  |                                                 |
\*---------------------------------------------------------------------------*/
FoamFile
{
    version     2.0;
    format      ascii;
    class       volScalarField;
    location    "0.1";
    object      C3H7;
}
// * * * * * * * * * * * * * * * * * * * * * * * * * * * * * * * * * * * * * //

dimensions      [0 0 0 0 0 0 0];

internalField   nonuniform List<scalar> 
1250
(
1.55417e-11
5.65382e-11
1.0061e-10
1.51152e-10
2.18037e-10
3.07341e-10
4.22273e-10
5.62369e-10
7.19692e-10
8.8438e-10
1.06206e-09
1.24652e-09
1.42931e-09
1.59806e-09
1.75174e-09
1.88933e-09
2.0057e-09
2.10241e-09
2.17503e-09
2.22689e-09
2.2569e-09
2.27248e-09
2.27406e-09
2.24523e-09
2.19794e-09
2.13801e-09
2.07333e-09
2.00149e-09
1.92815e-09
1.85191e-09
1.77271e-09
1.69093e-09
1.60767e-09
1.52553e-09
1.44191e-09
1.35531e-09
1.26556e-09
1.17447e-09
1.08314e-09
9.92436e-10
9.02455e-10
8.15222e-10
7.31651e-10
6.48089e-10
5.76262e-10
5.01883e-10
4.34656e-10
3.99353e-10
3.61127e-10
2.32769e-10
1.84655e-11
6.43476e-11
1.11212e-10
1.6737e-10
2.43735e-10
3.4577e-10
4.75315e-10
6.2752e-10
7.90215e-10
9.6193e-10
1.14334e-09
1.32986e-09
1.5112e-09
1.67566e-09
1.82535e-09
1.9534e-09
2.06263e-09
2.15146e-09
2.21654e-09
2.26004e-09
2.2847e-09
2.29441e-09
2.29017e-09
2.25671e-09
2.20779e-09
2.14508e-09
2.07621e-09
2.00279e-09
1.92743e-09
1.84948e-09
1.7688e-09
1.68579e-09
1.60153e-09
1.5193e-09
1.43528e-09
1.34825e-09
1.25848e-09
1.16757e-09
1.07642e-09
9.86155e-10
8.96478e-10
8.099e-10
7.26593e-10
6.43816e-10
5.72471e-10
4.98741e-10
4.31834e-10
3.96941e-10
3.59505e-10
2.3121e-10
2.79165e-11
8.71217e-11
1.43287e-10
2.19531e-10
3.26449e-10
4.63691e-10
6.23951e-10
7.94668e-10
9.75281e-10
1.1557e-09
1.34327e-09
1.52886e-09
1.70054e-09
1.8549e-09
1.98668e-09
2.0969e-09
2.18803e-09
2.25751e-09
2.30439e-09
2.33143e-09
2.34244e-09
2.33919e-09
2.32287e-09
2.27888e-09
2.22527e-09
2.15778e-09
2.08191e-09
2.00449e-09
1.92526e-09
1.84353e-09
1.76004e-09
1.6741e-09
1.58804e-09
1.50514e-09
1.42043e-09
1.33237e-09
1.24248e-09
1.15223e-09
1.06126e-09
9.72204e-10
8.83018e-10
7.97721e-10
7.15051e-10
6.33961e-10
5.63724e-10
4.91434e-10
4.25987e-10
3.92037e-10
3.56322e-10
2.27568e-10
5.80975e-11
1.44361e-10
2.38215e-10
3.79609e-10
5.55977e-10
7.44847e-10
9.42286e-10
1.14272e-09
1.33288e-09
1.51335e-09
1.69593e-09
1.86265e-09
2.00803e-09
2.13319e-09
2.23363e-09
2.31235e-09
2.37179e-09
2.41003e-09
2.42865e-09
2.43198e-09
2.42092e-09
2.39777e-09
2.36363e-09
2.30649e-09
2.24006e-09
2.17092e-09
2.08812e-09
2.00425e-09
1.91881e-09
1.83234e-09
1.74396e-09
1.65579e-09
1.56807e-09
1.48228e-09
1.39595e-09
1.30733e-09
1.21804e-09
1.12823e-09
1.03838e-09
9.50369e-10
8.62469e-10
7.78621e-10
6.97726e-10
6.19038e-10
5.50939e-10
4.80273e-10
4.16699e-10
3.83955e-10
3.50572e-10
2.22124e-10
1.9012e-10
3.82931e-10
6.29572e-10
8.97174e-10
1.14997e-09
1.38661e-09
1.58667e-09
1.78042e-09
1.9428e-09
2.08431e-09
2.22253e-09
2.33776e-09
2.42914e-09
2.49741e-09
2.54679e-09
2.58104e-09
2.59389e-09
2.59118e-09
2.57316e-09
2.5441e-09
2.50436e-09
2.45704e-09
2.40316e-09
2.3288e-09
2.24868e-09
2.1697e-09
2.08974e-09
1.99758e-09
1.90486e-09
1.81218e-09
1.7205e-09
1.62988e-09
1.53983e-09
1.44846e-09
1.36093e-09
1.2731e-09
1.18443e-09
1.09569e-09
1.00724e-09
9.20378e-10
8.34348e-10
7.52585e-10
6.745e-10
5.98892e-10
5.33235e-10
4.64601e-10
4.04803e-10
3.72548e-10
3.4293e-10
2.14863e-10
1.79054e-09
1.88705e-09
1.96644e-09
2.07644e-09
2.20378e-09
2.33594e-09
2.44271e-09
2.54971e-09
2.63644e-09
2.71137e-09
2.78522e-09
2.84996e-09
2.90183e-09
2.90637e-09
2.89263e-09
2.86871e-09
2.82462e-09
2.77097e-09
2.71088e-09
2.64599e-09
2.57491e-09
2.50105e-09
2.4254e-09
2.33763e-09
2.24443e-09
2.15486e-09
2.06721e-09
1.97791e-09
1.87905e-09
1.78248e-09
1.68774e-09
1.59257e-09
1.49823e-09
1.40567e-09
1.31613e-09
1.22895e-09
1.14165e-09
1.05399e-09
9.66921e-10
8.81881e-10
7.986e-10
7.20443e-10
6.45586e-10
5.73581e-10
5.1026e-10
4.45022e-10
3.89477e-10
3.58612e-10
3.32955e-10
2.06358e-10
2.18412e-09
3.72277e-09
3.63571e-09
3.50142e-09
3.4253e-09
3.44248e-09
3.4084e-09
3.38547e-09
3.36733e-09
3.34937e-09
3.32998e-09
3.30754e-09
3.27891e-09
3.24616e-09
3.20381e-09
3.11642e-09
3.01374e-09
2.91128e-09
2.81016e-09
2.7109e-09
2.61111e-09
2.51429e-09
2.42034e-09
2.3202e-09
2.2155e-09
2.11626e-09
2.02183e-09
1.93222e-09
1.83926e-09
1.73715e-09
1.63706e-09
1.54021e-09
1.44555e-09
1.35253e-09
1.26226e-09
1.1748e-09
1.08818e-09
1.002e-09
9.17008e-10
8.35406e-10
7.56266e-10
6.82291e-10
6.10727e-10
5.42305e-10
4.82963e-10
4.21789e-10
3.70749e-10
3.41524e-10
3.19423e-10
1.9681e-10
3.71836e-10
2.98025e-09
3.90325e-09
4.13029e-09
4.14217e-09
4.15655e-09
4.09797e-09
4.02005e-09
3.93706e-09
3.83767e-09
3.73471e-09
3.63487e-09
3.53749e-09
3.44251e-09
3.34848e-09
3.24479e-09
3.09995e-09
2.96288e-09
2.83278e-09
2.70914e-09
2.59136e-09
2.47875e-09
2.37087e-09
2.26461e-09
2.15595e-09
2.05164e-09
1.95258e-09
1.85776e-09
1.76801e-09
1.67166e-09
1.57022e-09
1.47222e-09
1.37744e-09
1.28549e-09
1.19581e-09
1.10848e-09
1.02345e-09
9.4048e-10
8.6002e-10
7.82831e-10
7.07909e-10
6.37345e-10
5.69701e-10
5.0695e-10
4.51686e-10
3.94618e-10
3.48525e-10
3.22795e-10
3.02411e-10
1.85751e-10
3.98306e-11
1.23585e-09
2.48719e-09
3.34931e-09
3.80407e-09
4.03511e-09
4.13271e-09
4.12832e-09
4.07763e-09
3.96341e-09
3.8407e-09
3.715e-09
3.58942e-09
3.46497e-09
3.34312e-09
3.2087e-09
3.06365e-09
2.91172e-09
2.76842e-09
2.63411e-09
2.50765e-09
2.38813e-09
2.27499e-09
2.1677e-09
2.0591e-09
1.95344e-09
1.85305e-09
1.7575e-09
1.66606e-09
1.57822e-09
1.48046e-09
1.38471e-09
1.29158e-09
1.20132e-09
1.1143e-09
1.03084e-09
9.50771e-10
8.72659e-10
7.96123e-10
7.22677e-10
6.52183e-10
5.8743e-10
5.25398e-10
4.67832e-10
4.16879e-10
3.6497e-10
3.25128e-10
3.01035e-10
2.83187e-10
1.73989e-10
3.84234e-12
2.64275e-10
8.97891e-10
1.77381e-09
2.53824e-09
3.07711e-09
3.42724e-09
3.61435e-09
3.7056e-09
3.69642e-09
3.65223e-09
3.57206e-09
3.47183e-09
3.3628e-09
3.24447e-09
3.08609e-09
2.92758e-09
2.77347e-09
2.62874e-09
2.49373e-09
2.36614e-09
2.24466e-09
2.12956e-09
2.01946e-09
1.91473e-09
1.81507e-09
1.71995e-09
1.62821e-09
1.53996e-09
1.45432e-09
1.36626e-09
1.27482e-09
1.1869e-09
1.10248e-09
1.0213e-09
9.42851e-10
8.67404e-10
7.95434e-10
7.24879e-10
6.57401e-10
5.93076e-10
5.33558e-10
4.76943e-10
4.2539e-10
3.79754e-10
3.32806e-10
2.97774e-10
2.76866e-10
2.6058e-10
1.6239e-10
6.76335e-13
3.96974e-11
1.90331e-10
5.70671e-10
1.1538e-09
1.74401e-09
2.24244e-09
2.60488e-09
2.82105e-09
2.92384e-09
2.99593e-09
3.01077e-09
2.99466e-09
2.94412e-09
2.86845e-09
2.74629e-09
2.61747e-09
2.49021e-09
2.36626e-09
2.24718e-09
2.13321e-09
2.0231e-09
1.91907e-09
1.81911e-09
1.72441e-09
1.63439e-09
1.54772e-09
1.46402e-09
1.38288e-09
1.30405e-09
1.22672e-09
1.14336e-09
1.06315e-09
9.85837e-10
9.11733e-10
8.40718e-10
7.72679e-10
7.07626e-10
6.45915e-10
5.85703e-10
5.28196e-10
4.75616e-10
4.25553e-10
3.79939e-10
3.38505e-10
2.9739e-10
2.6888e-10
2.50666e-10
2.35286e-10
1.49265e-10
1.17147e-12
1.17922e-11
4.03922e-11
1.19149e-10
3.07619e-10
6.33145e-10
1.03402e-09
1.38537e-09
1.67913e-09
1.89427e-09
2.05331e-09
2.14405e-09
2.20392e-09
2.22638e-09
2.20641e-09
2.15316e-09
2.08899e-09
2.02212e-09
1.9503e-09
1.87296e-09
1.79439e-09
1.71375e-09
1.63422e-09
1.55574e-09
1.4783e-09
1.40368e-09
1.33008e-09
1.25799e-09
1.18755e-09
1.11906e-09
1.05201e-09
9.81585e-10
9.12947e-10
8.46678e-10
7.82951e-10
7.22079e-10
6.63462e-10
6.07664e-10
5.54403e-10
5.04344e-10
4.5607e-10
4.09855e-10
3.66703e-10
3.28117e-10
2.92901e-10
2.58066e-10
2.35225e-10
2.2056e-10
2.06639e-10
1.34269e-10
1.05375e-12
5.63503e-12
1.42372e-11
2.9531e-11
6.32022e-11
1.39867e-10
2.75794e-10
4.65236e-10
6.7579e-10
8.73604e-10
1.0496e-09
1.19327e-09
1.3051e-09
1.39811e-09
1.44332e-09
1.4668e-09
1.47032e-09
1.45836e-09
1.43638e-09
1.40471e-09
1.36565e-09
1.32117e-09
1.27439e-09
1.22506e-09
1.17287e-09
1.11841e-09
1.06337e-09
1.00835e-09
9.53427e-10
8.99809e-10
8.46627e-10
7.91153e-10
7.37084e-10
6.84977e-10
6.34331e-10
5.8535e-10
5.38212e-10
4.93394e-10
4.50255e-10
4.09977e-10
3.71425e-10
3.35559e-10
3.00843e-10
2.69746e-10
2.41334e-10
2.14239e-10
1.97083e-10
1.85072e-10
1.76118e-10
1.17171e-10
7.65418e-13
3.19818e-12
6.95484e-12
1.20014e-11
1.95171e-11
3.18541e-11
5.44334e-11
9.61994e-11
1.64742e-10
2.56601e-10
3.6317e-10
4.72644e-10
5.75836e-10
6.61981e-10
7.32294e-10
7.87976e-10
8.32463e-10
8.61014e-10
8.81776e-10
8.91992e-10
8.91812e-10
8.83095e-10
8.69029e-10
8.49322e-10
8.23442e-10
7.91907e-10
7.5921e-10
7.25305e-10
6.90135e-10
6.54539e-10
6.1811e-10
5.81357e-10
5.44768e-10
5.08947e-10
4.73227e-10
4.38398e-10
4.04466e-10
3.71547e-10
3.40433e-10
3.10715e-10
2.82315e-10
2.55772e-10
2.30294e-10
2.07155e-10
1.85712e-10
1.66619e-10
1.56266e-10
1.48869e-10
1.43375e-10
9.79927e-11
5.19754e-13
1.95949e-12
3.88356e-12
6.24539e-12
8.97656e-12
1.22489e-11
1.64953e-11
2.27117e-11
3.2566e-11
4.89341e-11
7.47673e-11
1.11652e-10
1.56339e-10
2.05178e-10
2.54739e-10
3.01792e-10
3.45232e-10
3.8339e-10
4.16135e-10
4.42161e-10
4.62518e-10
4.76163e-10
4.85125e-10
4.88207e-10
4.83473e-10
4.73642e-10
4.6197e-10
4.47613e-10
4.31389e-10
4.1389e-10
3.95508e-10
3.76463e-10
3.56648e-10
3.36491e-10
3.15531e-10
2.94893e-10
2.74228e-10
2.53631e-10
2.33698e-10
2.14522e-10
1.95967e-10
1.78327e-10
1.6176e-10
1.46609e-10
1.32983e-10
1.21804e-10
1.16372e-10
1.1257e-10
1.10883e-10
7.71545e-11
3.46925e-13
1.23032e-12
2.30732e-12
3.53459e-12
4.86324e-12
6.2502e-12
7.61461e-12
9.06445e-12
1.06794e-11
1.26578e-11
1.57594e-11
2.11749e-11
2.89946e-11
3.97625e-11
5.36659e-11
7.04614e-11
8.93922e-11
1.09548e-10
1.30159e-10
1.49479e-10
1.67606e-10
1.83531e-10
1.96978e-10
2.07324e-10
2.15318e-10
2.20508e-10
2.22895e-10
2.22831e-10
2.20914e-10
2.17128e-10
2.12351e-10
2.06218e-10
1.98862e-10
1.90749e-10
1.81558e-10
1.71904e-10
1.61687e-10
1.51322e-10
1.40913e-10
1.30482e-10
1.20271e-10
1.1052e-10
1.01584e-10
9.34003e-11
8.66863e-11
8.18735e-11
8.00082e-11
8.00833e-11
7.92465e-11
5.68386e-11
2.26546e-13
7.74892e-13
1.40955e-12
2.10177e-12
2.81423e-12
3.50835e-12
4.14839e-12
4.68962e-12
5.09254e-12
5.36118e-12
5.91707e-12
6.71588e-12
7.67632e-12
8.88523e-12
1.04993e-11
1.26591e-11
1.55611e-11
1.94072e-11
2.41962e-11
2.98005e-11
3.64728e-11
4.44292e-11
5.23189e-11
5.98293e-11
6.66783e-11
7.27264e-11
7.773e-11
8.16981e-11
8.45358e-11
8.6536e-11
8.77447e-11
8.78262e-11
8.73231e-11
8.59079e-11
8.38726e-11
8.12724e-11
7.80368e-11
7.44477e-11
7.05859e-11
6.65536e-11
6.25453e-11
5.86216e-11
5.50906e-11
5.19903e-11
5.00078e-11
4.90174e-11
4.98458e-11
5.2563e-11
5.23149e-11
3.78644e-11
1.43788e-13
4.81553e-13
8.61322e-13
1.26524e-12
1.67009e-12
2.05003e-12
2.3783e-12
2.62867e-12
2.77483e-12
2.8793e-12
3.08504e-12
3.24435e-12
3.35245e-12
3.41209e-12
3.44367e-12
3.41375e-12
3.38207e-12
3.31123e-12
3.83638e-12
4.78563e-12
5.99064e-12
7.47994e-12
9.22702e-12
1.12096e-11
1.33794e-11
1.56289e-11
1.78564e-11
2.0029e-11
2.19671e-11
2.37544e-11
2.53371e-11
2.65857e-11
2.75546e-11
2.82299e-11
2.86068e-11
2.86543e-11
2.8484e-11
2.81104e-11
2.75096e-11
2.67792e-11
2.60457e-11
2.53833e-11
2.49801e-11
2.48365e-11
2.52714e-11
2.63104e-11
2.86983e-11
3.14758e-11
3.11164e-11
2.2123e-11
8.7756e-14
2.9047e-13
5.14971e-13
7.50495e-13
9.83158e-13
1.19684e-12
1.37409e-12
1.49695e-12
1.58016e-12
1.70724e-12
1.79494e-12
1.83572e-12
1.82161e-12
1.74859e-12
1.6128e-12
1.40587e-12
1.11885e-12
1.05096e-12
1.14456e-12
1.24166e-12
1.37463e-12
1.51471e-12
1.69293e-12
1.88415e-12
2.12831e-12
2.40661e-12
2.7137e-12
3.05695e-12
3.42253e-12
3.81321e-12
4.22494e-12
4.66997e-12
5.10241e-12
5.51337e-12
5.94505e-12
6.33111e-12
6.69778e-12
7.02909e-12
7.32462e-12
7.65429e-12
8.01394e-12
8.44919e-12
9.05979e-12
9.93976e-12
1.11208e-11
1.26367e-11
1.48516e-11
1.66583e-11
1.62093e-11
1.07584e-11
5.05827e-14
1.66541e-13
2.94104e-13
4.26933e-13
5.56726e-13
6.73514e-13
7.6611e-13
8.66194e-13
9.59217e-13
1.02868e-12
1.0689e-12
1.07431e-12
1.03979e-12
9.60258e-13
8.30673e-13
6.47555e-13
5.07605e-13
5.16437e-13
5.18863e-13
5.14382e-13
5.01848e-13
4.89323e-13
4.67856e-13
4.33664e-13
3.91495e-13
3.40604e-13
2.73619e-13
2.04239e-13
1.51969e-13
1.9243e-13
2.38422e-13
3.03089e-13
3.74737e-13
4.66412e-13
5.65088e-13
6.82777e-13
8.03361e-13
9.52245e-13
1.10153e-12
1.25876e-12
1.42837e-12
1.89217e-12
2.51596e-12
3.32702e-12
4.32859e-12
5.48487e-12
6.81798e-12
7.55063e-12
7.16841e-12
4.17378e-12
2.66424e-14
8.77443e-14
1.54849e-13
2.24232e-13
2.9766e-13
3.73634e-13
4.46177e-13
5.11176e-13
5.64257e-13
6.01055e-13
6.17297e-13
6.08759e-13
5.71472e-13
5.01606e-13
3.95392e-13
2.91566e-13
2.89888e-13
2.8259e-13
2.69137e-13
2.51194e-13
2.25115e-13
1.89841e-13
1.44442e-13
8.80126e-14
2.07996e-14
2.26282e-14
2.524e-14
2.81046e-14
3.14437e-14
3.73101e-14
4.47062e-14
5.36903e-14
6.74239e-14
8.34972e-14
1.04299e-13
1.30572e-13
1.6017e-13
1.99343e-13
2.43486e-13
2.91065e-13
3.48364e-13
4.108e-13
4.7575e-13
9.24165e-13
1.50893e-12
2.12631e-12
2.6427e-12
2.9105e-12
2.54396e-12
1.21233e-12
1.33083e-14
4.47046e-14
8.08118e-14
1.20676e-13
1.62727e-13
2.0487e-13
2.44605e-13
2.79128e-13
3.05457e-13
3.20516e-13
3.21201e-13
3.0447e-13
2.67299e-13
2.06751e-13
1.70142e-13
1.68933e-13
1.63492e-13
1.53336e-13
1.37931e-13
1.16683e-13
8.8865e-14
5.36793e-14
1.02415e-14
8.54283e-15
8.6185e-15
8.61181e-15
8.57543e-15
8.58009e-15
8.71997e-15
9.47637e-15
1.09845e-14
1.31161e-14
1.59848e-14
2.02344e-14
2.59716e-14
3.29065e-14
4.11176e-14
5.18287e-14
6.44754e-14
7.85238e-14
9.39133e-14
1.10094e-13
1.26037e-13
1.77746e-13
4.50165e-13
7.02238e-13
9.15605e-13
9.27983e-13
6.67048e-13
3.0454e-13
5.72139e-15
2.0125e-14
3.73151e-14
5.65222e-14
7.6604e-14
9.61311e-14
1.13466e-13
1.26805e-13
1.34222e-13
1.3369e-13
1.23097e-13
1.00334e-13
8.80078e-14
8.98888e-14
8.9278e-14
8.58109e-14
7.90977e-14
6.86956e-14
5.41046e-14
3.47686e-14
1.01129e-14
4.32609e-15
4.06797e-15
3.73201e-15
3.32643e-15
2.86892e-15
2.41732e-15
2.09834e-15
1.83498e-15
1.72767e-15
1.89876e-15
2.41318e-15
3.2953e-15
4.69556e-15
6.6883e-15
9.21131e-15
1.22519e-14
1.57518e-14
1.96207e-14
2.37145e-14
2.78459e-14
3.15839e-14
3.44269e-14
3.56227e-14
1.25425e-13
2.27548e-13
2.61617e-13
2.28159e-13
1.4841e-13
6.95968e-14
1.32317e-15
5.67648e-15
1.14013e-14
1.73441e-14
2.2664e-14
2.64841e-14
2.79253e-14
2.60162e-14
2.69113e-14
3.00703e-14
3.25449e-14
3.40956e-14
3.44737e-14
3.34349e-14
3.07242e-14
2.60386e-14
1.90211e-14
9.30182e-15
2.1217e-15
2.02253e-15
1.86649e-15
1.65853e-15
1.38167e-15
1.04626e-15
6.6255e-16
2.2461e-16
1.3525e-18
1.43396e-18
1.5592e-18
1.73877e-18
2.02736e-18
2.68731e-18
3.43499e-18
4.26233e-18
8.02964e-16
1.86542e-15
3.12204e-15
4.51566e-15
5.92055e-15
7.16898e-15
8.23138e-15
8.92147e-15
9.19269e-15
8.65687e-15
1.09297e-14
3.82951e-14
4.3945e-14
3.58881e-14
2.16057e-14
9.93432e-15
2.56991e-17
3.02164e-16
6.28285e-16
7.99146e-16
8.35811e-16
6.78702e-16
3.0137e-16
1.53447e-16
1.81949e-16
2.08124e-16
2.29985e-16
2.45385e-16
2.522e-16
2.48947e-16
2.34857e-16
2.05282e-16
1.55637e-16
8.3019e-17
2.91477e-19
2.88975e-19
2.81925e-19
2.70224e-19
2.54352e-19
2.35872e-19
2.1713e-19
2.01238e-19
1.92551e-19
1.94994e-19
2.10601e-19
2.41513e-19
2.89722e-19
3.54227e-19
4.32535e-19
5.22017e-19
6.18725e-19
7.16962e-19
8.09726e-19
8.89192e-19
9.461e-19
9.72034e-19
9.61138e-19
2.66611e-16
4.98956e-16
6.06375e-16
6.03513e-16
5.17538e-16
3.77095e-16
2.42165e-16
1.26729e-16
7.30417e-17
)
;

boundaryField
{
    AXIS
    {
        type            empty;
    }
    OUTLET
    {
        type            calculated;
        value           nonuniform List<scalar> 
25
(
2.32769e-10
2.3121e-10
2.27568e-10
2.22124e-10
2.14863e-10
2.06358e-10
1.9681e-10
1.85751e-10
1.73989e-10
1.6239e-10
1.49265e-10
1.34269e-10
1.17171e-10
9.79927e-11
7.71545e-11
5.68386e-11
3.78644e-11
2.2123e-11
1.07584e-11
4.17378e-12
1.21233e-12
3.0454e-13
6.95968e-14
9.93432e-15
7.30417e-17
)
;
    }
    COFLOW
    {
        type            calculated;
        value           uniform 0;
    }
    PILOT
    {
        type            calculated;
        value           uniform 2.25714e-37;
    }
    FUEL
    {
        type            calculated;
        value           uniform 0;
    }
    WALL
    {
        type            calculated;
        value           nonuniform List<scalar> 
50
(
2.56991e-17
3.02164e-16
6.28285e-16
7.99146e-16
8.35811e-16
6.78702e-16
3.0137e-16
1.53447e-16
1.81949e-16
2.08124e-16
2.29985e-16
2.45385e-16
2.522e-16
2.48947e-16
2.34857e-16
2.05282e-16
1.55637e-16
8.3019e-17
2.91477e-19
2.88975e-19
2.81925e-19
2.70224e-19
2.54352e-19
2.35872e-19
2.1713e-19
2.01238e-19
1.92551e-19
1.94994e-19
2.10601e-19
2.41513e-19
2.89722e-19
3.54227e-19
4.32535e-19
5.22017e-19
6.18725e-19
7.16962e-19
8.09726e-19
8.89192e-19
9.461e-19
9.72034e-19
9.61138e-19
2.66611e-16
4.98956e-16
6.06375e-16
6.03513e-16
5.17538e-16
3.77095e-16
2.42165e-16
1.26729e-16
7.30417e-17
)
;
    }
    front
    {
        type            wedge;
    }
    back
    {
        type            wedge;
    }
}


// ************************************************************************* //
