/*--------------------------------*- C++ -*----------------------------------*\
| =========                 |                                                 |
| \\      /  F ield         | OpenFOAM: The Open Source CFD Toolbox           |
|  \\    /   O peration     | Version:  2.4.x                                 |
|   \\  /    A nd           | Web:      www.OpenFOAM.org                      |
|    \\/     M anipulation  |                                                 |
\*---------------------------------------------------------------------------*/
FoamFile
{
    version     2.0;
    format      ascii;
    class       volScalarField;
    location    "0.1";
    object      C3H8;
}
// * * * * * * * * * * * * * * * * * * * * * * * * * * * * * * * * * * * * * //

dimensions      [0 0 0 0 0 0 0];

internalField   nonuniform List<scalar> 
1250
(
6.93522e-08
2.45072e-07
4.08104e-07
5.44977e-07
6.62318e-07
7.59457e-07
8.3788e-07
8.99958e-07
9.66885e-07
1.11793e-06
1.28298e-06
1.46824e-06
1.66255e-06
1.86039e-06
2.05476e-06
2.25247e-06
2.45747e-06
2.67574e-06
2.88369e-06
3.08315e-06
3.2678e-06
3.44043e-06
3.59588e-06
3.75751e-06
3.9374e-06
4.09816e-06
4.21225e-06
4.27165e-06
4.2848e-06
4.24868e-06
4.16799e-06
4.05007e-06
3.88435e-06
3.66008e-06
3.40789e-06
3.13588e-06
2.855e-06
2.57086e-06
2.29358e-06
2.0245e-06
1.77041e-06
1.53419e-06
1.32105e-06
1.12512e-06
9.58089e-07
7.96755e-07
6.73246e-07
6.15474e-07
5.60802e-07
3.39581e-07
8.24595e-08
2.77136e-07
4.40836e-07
5.73369e-07
6.81164e-07
7.65635e-07
8.29148e-07
8.77371e-07
1.00611e-06
1.15934e-06
1.32609e-06
1.51174e-06
1.70677e-06
1.90116e-06
2.09474e-06
2.28945e-06
2.49291e-06
2.7063e-06
2.91138e-06
3.10507e-06
3.28641e-06
3.45387e-06
3.60397e-06
3.75896e-06
3.91154e-06
4.06948e-06
4.17716e-06
4.23379e-06
4.2426e-06
4.20316e-06
4.12103e-06
4.00117e-06
3.8401e-06
3.61707e-06
3.36666e-06
3.09751e-06
2.81972e-06
2.53962e-06
2.26582e-06
2.00102e-06
1.75045e-06
1.51908e-06
1.30828e-06
1.11565e-06
9.50515e-07
7.91449e-07
6.69284e-07
6.12418e-07
5.58418e-07
3.36546e-07
1.24754e-07
3.67066e-07
5.24448e-07
6.36009e-07
7.09478e-07
7.51946e-07
8.13853e-07
9.52085e-07
1.10072e-06
1.25431e-06
1.42551e-06
1.61183e-06
1.80239e-06
1.99217e-06
2.18303e-06
2.37055e-06
2.56884e-06
2.7732e-06
2.96845e-06
3.15222e-06
3.32388e-06
3.47975e-06
3.61841e-06
3.75737e-06
3.87403e-06
4.00693e-06
4.10352e-06
4.15323e-06
4.15305e-06
4.10681e-06
4.02146e-06
3.89699e-06
3.74179e-06
3.52462e-06
3.27754e-06
3.0143e-06
2.74291e-06
2.47198e-06
2.20466e-06
1.94959e-06
1.70534e-06
1.48424e-06
1.27857e-06
1.09308e-06
9.32181e-07
7.78531e-07
6.61747e-07
6.06573e-07
5.5575e-07
3.2927e-07
2.58451e-07
5.58846e-07
6.60234e-07
6.76535e-07
7.06806e-07
8.30885e-07
9.64729e-07
1.10664e-06
1.25605e-06
1.40945e-06
1.58366e-06
1.76409e-06
1.94762e-06
2.1315e-06
2.31212e-06
2.487e-06
2.6768e-06
2.86639e-06
3.04717e-06
3.21616e-06
3.37005e-06
3.50869e-06
3.6275e-06
3.74511e-06
3.84197e-06
3.91136e-06
3.99618e-06
4.03121e-06
4.01909e-06
3.96607e-06
3.87233e-06
3.74519e-06
3.58926e-06
3.38945e-06
3.14828e-06
2.89296e-06
2.63241e-06
2.37157e-06
2.11604e-06
1.87213e-06
1.64086e-06
1.43105e-06
1.23532e-06
1.05909e-06
9.06433e-07
7.60825e-07
6.48643e-07
5.95028e-07
5.48562e-07
3.18662e-07
7.9281e-07
9.18293e-07
7.53347e-07
8.40905e-07
9.47295e-07
1.066e-06
1.19465e-06
1.33456e-06
1.47894e-06
1.62489e-06
1.79466e-06
1.96595e-06
2.13616e-06
2.30301e-06
2.46663e-06
2.62578e-06
2.80151e-06
2.97334e-06
3.13195e-06
3.27838e-06
3.40838e-06
3.523e-06
3.62108e-06
3.71101e-06
3.78389e-06
3.83033e-06
3.85399e-06
3.87276e-06
3.8478e-06
3.78289e-06
3.68317e-06
3.55279e-06
3.39505e-06
3.21591e-06
2.98448e-06
2.74048e-06
2.49134e-06
2.2437e-06
2.00258e-06
1.77365e-06
1.55891e-06
1.36108e-06
1.17824e-06
1.01324e-06
8.7115e-07
7.34538e-07
6.30703e-07
5.76317e-07
5.36617e-07
3.04657e-07
2.37635e-06
1.40233e-06
1.35415e-06
1.40277e-06
1.48782e-06
1.5889e-06
1.68883e-06
1.79685e-06
1.89901e-06
2.00069e-06
2.11944e-06
2.23559e-06
2.34663e-06
2.48964e-06
2.63222e-06
2.76988e-06
2.92556e-06
3.069e-06
3.20075e-06
3.3201e-06
3.42274e-06
3.5105e-06
3.58295e-06
3.64415e-06
3.68604e-06
3.70584e-06
3.70254e-06
3.68195e-06
3.64256e-06
3.56781e-06
3.4594e-06
3.32454e-06
3.16757e-06
2.99281e-06
2.79442e-06
2.56009e-06
2.32501e-06
2.09235e-06
1.8704e-06
1.6594e-06
1.45997e-06
1.27769e-06
1.10849e-06
9.58288e-07
8.26867e-07
7.00287e-07
6.04619e-07
5.54458e-07
5.16609e-07
2.88176e-07
2.44166e-06
2.52884e-06
2.2958e-06
2.19463e-06
2.17097e-06
2.22172e-06
2.25951e-06
2.308e-06
2.36174e-06
2.42552e-06
2.5009e-06
2.57472e-06
2.64419e-06
2.71053e-06
2.77869e-06
2.89411e-06
3.01848e-06
3.13112e-06
3.23175e-06
3.32012e-06
3.39265e-06
3.45248e-06
3.49905e-06
3.52918e-06
3.54245e-06
3.53694e-06
3.51198e-06
3.46826e-06
3.407e-06
3.31999e-06
3.20601e-06
3.06991e-06
2.91537e-06
2.74518e-06
2.56423e-06
2.35907e-06
2.14039e-06
1.92783e-06
1.72229e-06
1.52872e-06
1.34653e-06
1.18178e-06
1.02959e-06
8.93148e-07
7.73502e-07
6.57128e-07
5.7338e-07
5.25859e-07
4.88597e-07
2.67215e-07
4.80346e-07
2.1798e-06
2.46416e-06
2.55224e-06
2.57778e-06
2.63742e-06
2.67233e-06
2.70031e-06
2.7263e-06
2.76247e-06
2.79869e-06
2.8333e-06
2.86639e-06
2.89757e-06
2.92665e-06
2.96177e-06
3.0525e-06
3.13123e-06
3.1991e-06
3.25566e-06
3.30109e-06
3.33466e-06
3.35648e-06
3.36369e-06
3.35038e-06
3.31991e-06
3.27462e-06
3.21483e-06
3.14106e-06
3.04765e-06
2.92948e-06
2.7933e-06
2.64232e-06
2.4794e-06
2.31052e-06
2.13657e-06
1.94319e-06
1.74801e-06
1.5618e-06
1.38747e-06
1.22552e-06
1.07797e-06
9.40367e-07
8.19082e-07
7.10191e-07
6.09004e-07
5.34015e-07
4.89523e-07
4.54955e-07
2.47537e-07
3.74788e-08
1.12957e-06
1.69936e-06
2.14301e-06
2.41825e-06
2.59273e-06
2.71619e-06
2.78938e-06
2.84016e-06
2.87301e-06
2.89875e-06
2.91924e-06
2.93601e-06
2.9487e-06
2.95858e-06
2.96993e-06
2.99219e-06
3.04291e-06
3.08376e-06
3.11558e-06
3.13686e-06
3.14821e-06
3.15025e-06
3.14078e-06
3.10476e-06
3.05548e-06
2.99508e-06
2.92356e-06
2.84234e-06
2.75129e-06
2.63327e-06
2.50063e-06
2.35758e-06
2.20619e-06
2.05022e-06
1.89047e-06
1.72893e-06
1.55844e-06
1.39401e-06
1.23971e-06
1.09543e-06
9.66041e-07
8.44742e-07
7.39321e-07
6.45002e-07
5.53215e-07
4.88488e-07
4.48461e-07
4.15214e-07
2.39934e-07
3.08162e-09
3.83114e-07
7.62739e-07
1.27584e-06
1.72917e-06
2.07585e-06
2.33146e-06
2.50947e-06
2.63929e-06
2.72395e-06
2.78974e-06
2.83343e-06
2.86406e-06
2.88528e-06
2.89586e-06
2.88086e-06
2.86389e-06
2.8818e-06
2.8977e-06
2.90687e-06
2.90813e-06
2.90015e-06
2.88447e-06
2.86022e-06
2.81075e-06
2.74943e-06
2.68008e-06
2.60318e-06
2.51944e-06
2.42952e-06
2.32487e-06
2.1994e-06
2.06598e-06
1.92778e-06
1.78592e-06
1.64451e-06
1.50256e-06
1.36255e-06
1.22091e-06
1.08648e-06
9.6123e-07
8.50353e-07
7.46459e-07
6.54011e-07
5.7082e-07
4.91577e-07
4.37448e-07
4.03106e-07
3.70308e-07
2.30703e-07
1.39322e-09
1.07462e-07
2.84182e-07
5.52372e-07
9.27353e-07
1.31242e-06
1.65014e-06
1.92162e-06
2.10332e-06
2.23542e-06
2.35794e-06
2.45009e-06
2.52282e-06
2.57915e-06
2.61464e-06
2.60541e-06
2.59148e-06
2.59776e-06
2.60036e-06
2.59683e-06
2.58725e-06
2.56978e-06
2.54747e-06
2.51808e-06
2.46616e-06
2.40038e-06
2.32923e-06
2.2532e-06
2.17238e-06
2.08829e-06
1.99947e-06
1.88566e-06
1.76692e-06
1.64426e-06
1.52125e-06
1.39795e-06
1.27605e-06
1.1552e-06
1.04113e-06
9.29158e-07
8.23448e-07
7.28697e-07
6.40421e-07
5.62714e-07
4.92793e-07
4.27465e-07
3.83714e-07
3.53487e-07
3.35171e-07
2.18231e-07
3.62361e-09
4.0451e-08
1.15174e-07
2.16093e-07
3.8191e-07
6.19595e-07
9.05019e-07
1.15739e-06
1.37469e-06
1.55524e-06
1.71007e-06
1.83099e-06
1.93474e-06
2.01743e-06
2.0652e-06
2.09195e-06
2.12075e-06
2.14601e-06
2.15827e-06
2.16177e-06
2.15762e-06
2.14554e-06
2.12784e-06
2.10399e-06
2.0604e-06
1.99963e-06
1.93468e-06
1.86646e-06
1.79529e-06
1.72207e-06
1.64619e-06
1.55127e-06
1.45155e-06
1.34992e-06
1.24722e-06
1.14472e-06
1.04279e-06
9.45446e-07
8.50066e-07
7.59688e-07
6.74215e-07
5.97584e-07
5.27863e-07
4.66316e-07
4.09241e-07
3.56823e-07
3.23786e-07
2.98038e-07
2.98772e-07
2.01467e-07
3.73101e-09
2.0457e-08
5.03633e-08
9.12858e-08
1.49454e-07
2.37171e-07
3.64165e-07
5.2086e-07
6.86801e-07
8.47333e-07
9.98953e-07
1.138e-06
1.26126e-06
1.37344e-06
1.43973e-06
1.49505e-06
1.53946e-06
1.57402e-06
1.60016e-06
1.61819e-06
1.63016e-06
1.63373e-06
1.63045e-06
1.62077e-06
1.59553e-06
1.54907e-06
1.49921e-06
1.44659e-06
1.39111e-06
1.33475e-06
1.27568e-06
1.19916e-06
1.12072e-06
1.04258e-06
9.63857e-07
8.85216e-07
8.07615e-07
7.32635e-07
6.59445e-07
5.90815e-07
5.24787e-07
4.64492e-07
4.0913e-07
3.63754e-07
3.20817e-07
2.80971e-07
2.55879e-07
2.45695e-07
2.58862e-07
1.79307e-07
2.81806e-09
1.18247e-08
2.56459e-08
4.28766e-08
6.45116e-08
9.17158e-08
1.27641e-07
1.79158e-07
2.52049e-07
3.44395e-07
4.48119e-07
5.55841e-07
6.6147e-07
7.45832e-07
8.19589e-07
8.8269e-07
9.39415e-07
9.85923e-07
1.02547e-06
1.05715e-06
1.08208e-06
1.09869e-06
1.11031e-06
1.11548e-06
1.10737e-06
1.08276e-06
1.05426e-06
1.02243e-06
9.8749e-07
9.50678e-07
9.0335e-07
8.51583e-07
7.98447e-07
7.45067e-07
6.90697e-07
6.36617e-07
5.83161e-07
5.30622e-07
4.79806e-07
4.30869e-07
3.84395e-07
3.41559e-07
3.0185e-07
2.67578e-07
2.35735e-07
2.11215e-07
2.01445e-07
2.01552e-07
2.15241e-07
1.52442e-07
1.93118e-09
7.28191e-09
1.43871e-08
2.2862e-08
3.21084e-08
4.20511e-08
5.28575e-08
6.52781e-08
8.06377e-08
1.02682e-07
1.35733e-07
1.8302e-07
2.37746e-07
2.91386e-07
3.44823e-07
3.95268e-07
4.42603e-07
4.8607e-07
5.25582e-07
5.59829e-07
5.90316e-07
6.14617e-07
6.34425e-07
6.49238e-07
6.53029e-07
6.49964e-07
6.43662e-07
6.3315e-07
6.1407e-07
5.90548e-07
5.64819e-07
5.37652e-07
5.08601e-07
4.78259e-07
4.4608e-07
4.13922e-07
3.81476e-07
3.48932e-07
3.17733e-07
2.87981e-07
2.59358e-07
2.32458e-07
2.08164e-07
1.86458e-07
1.68266e-07
1.56333e-07
1.53432e-07
1.57905e-07
1.69246e-07
1.22193e-07
1.28791e-09
4.5615e-09
8.52931e-09
1.29766e-08
1.76371e-08
2.22337e-08
2.63327e-08
3.00148e-08
3.31459e-08
3.57361e-08
3.98305e-08
4.89174e-08
6.09557e-08
7.62884e-08
9.50276e-08
1.16761e-07
1.40566e-07
1.65323e-07
1.90487e-07
2.13637e-07
2.35551e-07
2.54813e-07
2.70955e-07
2.86072e-07
2.98407e-07
3.06588e-07
3.1057e-07
3.11871e-07
3.09877e-07
3.04736e-07
2.97851e-07
2.88534e-07
2.77225e-07
2.64711e-07
2.50434e-07
2.35387e-07
2.19552e-07
2.03494e-07
1.87505e-07
1.71708e-07
1.56389e-07
1.4212e-07
1.29654e-07
1.18713e-07
1.10596e-07
1.06831e-07
1.0831e-07
1.16328e-07
1.23376e-07
9.11747e-08
8.3489e-10
2.85043e-09
5.1677e-09
7.65995e-09
1.01601e-08
1.24888e-08
1.44696e-08
1.58923e-08
1.65606e-08
1.63777e-08
1.73221e-08
1.89611e-08
2.0623e-08
2.23801e-08
2.44573e-08
2.697e-08
3.01712e-08
3.42849e-08
3.92402e-08
4.48392e-08
5.24192e-08
6.35108e-08
7.44544e-08
8.49549e-08
9.45397e-08
1.03033e-07
1.09999e-07
1.15402e-07
1.19019e-07
1.21404e-07
1.22592e-07
1.22001e-07
1.20634e-07
1.17873e-07
1.14193e-07
1.09718e-07
1.04387e-07
9.86323e-08
9.26319e-08
8.65385e-08
8.06006e-08
7.51192e-08
7.05467e-08
6.69914e-08
6.55767e-08
6.62125e-08
7.0657e-08
7.98144e-08
8.29746e-08
6.14659e-08
5.2291e-10
1.74752e-09
3.11366e-09
4.54545e-09
5.94387e-09
7.19768e-09
8.19031e-09
8.80518e-09
8.92312e-09
8.87104e-09
9.38784e-09
9.70148e-09
9.78323e-09
9.62641e-09
9.26658e-09
8.56823e-09
7.64867e-09
6.36327e-09
6.78161e-09
8.22497e-09
1.00302e-08
1.22265e-08
1.47449e-08
1.75663e-08
2.06413e-08
2.37545e-08
2.67697e-08
2.96921e-08
3.21602e-08
3.43394e-08
3.62292e-08
3.75794e-08
3.84705e-08
3.89485e-08
3.90102e-08
3.86148e-08
3.79464e-08
3.70354e-08
3.58643e-08
3.46005e-08
3.34372e-08
3.25848e-08
3.23235e-08
3.27197e-08
3.43352e-08
3.7281e-08
4.29477e-08
4.96487e-08
5.03322e-08
3.6529e-08
3.12591e-10
1.03214e-09
1.82153e-09
2.63542e-09
3.4155e-09
4.09397e-09
4.59729e-09
4.84944e-09
4.93724e-09
5.2903e-09
5.50284e-09
5.54878e-09
5.40485e-09
5.05224e-09
4.47175e-09
3.63437e-09
2.50957e-09
2.12478e-09
2.28752e-09
2.44445e-09
2.66447e-09
2.87847e-09
3.14981e-09
3.41898e-09
3.76466e-09
4.14157e-09
4.53434e-09
4.95019e-09
5.35761e-09
5.77516e-09
6.20366e-09
6.65856e-09
7.07119e-09
7.43783e-09
7.84487e-09
8.19116e-09
8.51104e-09
8.80036e-09
9.07304e-09
9.43723e-09
9.92139e-09
1.06323e-08
1.1747e-08
1.34824e-08
1.58584e-08
1.89663e-08
2.34567e-08
2.72491e-08
2.69614e-08
1.83356e-08
1.7443e-10
5.72567e-10
1.0052e-09
1.44552e-09
1.8587e-09
2.20312e-09
2.43218e-09
2.71452e-09
2.98738e-09
3.17806e-09
3.26755e-09
3.23729e-09
3.0701e-09
2.74909e-09
2.25742e-09
1.58277e-09
1.06487e-09
1.07977e-09
1.07965e-09
1.06338e-09
1.02854e-09
9.93645e-10
9.37333e-10
8.51119e-10
7.45075e-10
6.15683e-10
4.48318e-10
2.66499e-10
1.14972e-10
1.45944e-10
1.80558e-10
2.31359e-10
2.86829e-10
3.59352e-10
4.36456e-10
5.29466e-10
6.23514e-10
7.4559e-10
8.66428e-10
9.94397e-10
1.1331e-09
1.92414e-09
3.06157e-09
4.60061e-09
6.53985e-09
8.78315e-09
1.13857e-08
1.29196e-08
1.24932e-08
7.54839e-09
8.69836e-11
2.85209e-10
4.98862e-10
7.11934e-10
9.3732e-10
1.17279e-09
1.39466e-09
1.5892e-09
1.74188e-09
1.83822e-09
1.86403e-09
1.80535e-09
1.64901e-09
1.38234e-09
9.92836e-10
6.18484e-10
6.13021e-10
5.95381e-10
5.6444e-10
5.2486e-10
4.67275e-10
3.89352e-10
2.89094e-10
1.64591e-10
1.64834e-11
1.79779e-11
2.01447e-11
2.24602e-11
2.50807e-11
2.98761e-11
3.58283e-11
4.29108e-11
5.40257e-11
6.67473e-11
8.32828e-11
1.04193e-10
1.27284e-10
1.58755e-10
1.93734e-10
2.30686e-10
2.75557e-10
3.2355e-10
3.72135e-10
1.25349e-09
2.42016e-09
3.65175e-09
4.71079e-09
5.31676e-09
4.75003e-09
2.38418e-09
4.17585e-11
1.40165e-10
2.53008e-10
3.76986e-10
5.06784e-10
6.35391e-10
7.5447e-10
8.54701e-10
9.26201e-10
9.58794e-10
9.42202e-10
8.66379e-10
7.21342e-10
4.9737e-10
3.63059e-10
3.59623e-10
3.47012e-10
3.24197e-10
2.90029e-10
2.43237e-10
1.82259e-10
1.05387e-10
1.0724e-11
6.83924e-12
6.93156e-12
6.94968e-12
6.9359e-12
6.9463e-12
7.05645e-12
7.69606e-12
8.96234e-12
1.07161e-11
1.30405e-11
1.65283e-11
2.12368e-11
2.68442e-11
3.3382e-11
4.19872e-11
5.20402e-11
6.29946e-11
7.47583e-11
8.6841e-11
9.84178e-11
1.89435e-10
7.60582e-10
1.29676e-09
1.76287e-09
1.8298e-09
1.34939e-09
6.3301e-10
1.76803e-11
6.21091e-11
1.14867e-10
1.73319e-10
2.33624e-10
2.91016e-10
3.40045e-10
3.74732e-10
3.88705e-10
3.75261e-10
3.2742e-10
2.38203e-10
1.88471e-10
1.9213e-10
1.90369e-10
1.82403e-10
1.6739e-10
1.44373e-10
1.12269e-10
6.9872e-11
1.59346e-11
3.48906e-12
3.27957e-12
3.00726e-12
2.67869e-12
2.30817e-12
1.94294e-12
1.69751e-12
1.49074e-12
1.40669e-12
1.54741e-12
1.96671e-12
2.68261e-12
3.83064e-12
5.47174e-12
7.5375e-12
1.00082e-11
1.28263e-11
1.59082e-11
1.91286e-11
2.23314e-11
2.5182e-11
2.7295e-11
2.8087e-11
2.23982e-10
4.49394e-10
5.32568e-10
4.72062e-10
3.1127e-10
1.47357e-10
3.95335e-12
1.68896e-11
3.3566e-11
5.02663e-11
6.41952e-11
7.24305e-11
7.2024e-11
5.97547e-11
5.77801e-11
6.4466e-11
6.96456e-11
7.28004e-11
7.33932e-11
7.08968e-11
6.47608e-11
5.43282e-11
3.88236e-11
1.74453e-11
1.72199e-12
1.64128e-12
1.51473e-12
1.34599e-12
1.12126e-12
8.48877e-13
5.37164e-13
1.81415e-13
9.22901e-17
9.79278e-17
1.06599e-16
1.19058e-16
1.39395e-16
1.87613e-16
2.42412e-16
3.03296e-16
6.51295e-13
1.51607e-12
2.53533e-12
3.66052e-12
4.78916e-12
5.78661e-12
6.62748e-12
7.16232e-12
7.3494e-12
6.87914e-12
1.32563e-11
7.47584e-11
8.96948e-11
7.45508e-11
4.52281e-11
2.08807e-11
6.73239e-14
6.50277e-13
1.34577e-12
1.69511e-12
1.74384e-12
1.36198e-12
4.91712e-13
1.25339e-13
1.48539e-13
1.69815e-13
1.87554e-13
2.00012e-13
2.0547e-13
2.02732e-13
1.91179e-13
1.67036e-13
1.26571e-13
6.74129e-14
1.98101e-17
1.96356e-17
1.91514e-17
1.83513e-17
1.72685e-17
1.601e-17
1.47357e-17
1.36569e-17
1.30693e-17
1.32397e-17
1.4307e-17
1.64191e-17
1.97153e-17
2.41322e-17
2.95043e-17
3.56562e-17
4.23197e-17
4.91035e-17
5.55217e-17
6.10281e-17
6.49728e-17
6.67649e-17
6.59937e-17
2.14634e-13
4.02919e-13
4.90819e-13
4.89688e-13
4.20949e-13
3.07431e-13
1.9779e-13
1.03643e-13
5.97905e-14
)
;

boundaryField
{
    AXIS
    {
        type            empty;
    }
    OUTLET
    {
        type            calculated;
        value           nonuniform List<scalar> 
25
(
3.39581e-07
3.36546e-07
3.2927e-07
3.18662e-07
3.04657e-07
2.88176e-07
2.67215e-07
2.47537e-07
2.39934e-07
2.30703e-07
2.18231e-07
2.01467e-07
1.79307e-07
1.52442e-07
1.22193e-07
9.11747e-08
6.14659e-08
3.6529e-08
1.83356e-08
7.54839e-09
2.38418e-09
6.3301e-10
1.47357e-10
2.08807e-11
5.97905e-14
)
;
    }
    COFLOW
    {
        type            calculated;
        value           uniform 0;
    }
    PILOT
    {
        type            calculated;
        value           uniform 1.81931e-37;
    }
    FUEL
    {
        type            calculated;
        value           uniform 0;
    }
    WALL
    {
        type            calculated;
        value           nonuniform List<scalar> 
50
(
6.73239e-14
6.50277e-13
1.34577e-12
1.69511e-12
1.74384e-12
1.36198e-12
4.91712e-13
1.25339e-13
1.48539e-13
1.69815e-13
1.87554e-13
2.00012e-13
2.0547e-13
2.02732e-13
1.91179e-13
1.67036e-13
1.26571e-13
6.74129e-14
1.98101e-17
1.96356e-17
1.91514e-17
1.83513e-17
1.72685e-17
1.601e-17
1.47357e-17
1.36569e-17
1.30693e-17
1.32397e-17
1.4307e-17
1.64191e-17
1.97153e-17
2.41322e-17
2.95043e-17
3.56562e-17
4.23197e-17
4.91035e-17
5.55217e-17
6.10281e-17
6.49728e-17
6.67649e-17
6.59937e-17
2.14634e-13
4.02919e-13
4.90819e-13
4.89688e-13
4.20949e-13
3.07431e-13
1.9779e-13
1.03643e-13
5.97905e-14
)
;
    }
    front
    {
        type            wedge;
    }
    back
    {
        type            wedge;
    }
}


// ************************************************************************* //
