/*--------------------------------*- C++ -*----------------------------------*\
| =========                 |                                                 |
| \\      /  F ield         | OpenFOAM: The Open Source CFD Toolbox           |
|  \\    /   O peration     | Version:  2.4.x                                 |
|   \\  /    A nd           | Web:      www.OpenFOAM.org                      |
|    \\/     M anipulation  |                                                 |
\*---------------------------------------------------------------------------*/
FoamFile
{
    version     2.0;
    format      ascii;
    class       volScalarField;
    location    "0.1";
    object      CH;
}
// * * * * * * * * * * * * * * * * * * * * * * * * * * * * * * * * * * * * * //

dimensions      [0 0 0 0 0 0 0];

internalField   nonuniform List<scalar> 
1250
(
1.19615e-11
5.17139e-11
1.23827e-10
2.60892e-10
5.1284e-10
9.16518e-10
1.48741e-09
2.21866e-09
3.09669e-09
4.27808e-09
5.5014e-09
6.56082e-09
7.59597e-09
8.53106e-09
9.42727e-09
1.02183e-08
1.06927e-08
1.08262e-08
1.09137e-08
1.09687e-08
1.0985e-08
1.07836e-08
1.03368e-08
1.00077e-08
1.01072e-08
1.02442e-08
1.0246e-08
1.00314e-08
9.98292e-09
1.00897e-08
1.02697e-08
1.04382e-08
1.04945e-08
1.04251e-08
1.04435e-08
1.05689e-08
1.073e-08
1.09424e-08
1.1205e-08
1.15021e-08
1.18537e-08
1.22223e-08
1.26253e-08
1.29903e-08
1.33731e-08
1.37848e-08
1.39343e-08
1.42613e-08
1.49458e-08
1.39739e-08
1.3588e-11
6.0006e-11
1.46961e-10
3.21092e-10
6.40843e-10
1.13671e-09
1.81501e-09
2.64061e-09
3.78732e-09
5.06362e-09
6.33362e-09
7.43228e-09
8.45851e-09
9.4077e-09
1.02953e-08
1.10302e-08
1.14481e-08
1.15476e-08
1.15916e-08
1.16192e-08
1.15543e-08
1.11897e-08
1.08485e-08
1.06416e-08
1.06291e-08
1.07291e-08
1.05766e-08
1.03763e-08
1.03489e-08
1.04641e-08
1.06271e-08
1.07699e-08
1.08532e-08
1.07752e-08
1.07909e-08
1.08996e-08
1.10472e-08
1.12464e-08
1.14946e-08
1.17794e-08
1.21189e-08
1.24708e-08
1.2856e-08
1.32029e-08
1.3569e-08
1.39621e-08
1.40781e-08
1.43802e-08
1.50204e-08
1.39243e-08
1.8572e-11
8.67292e-11
2.32849e-10
5.49108e-10
1.09865e-09
1.8674e-09
2.90809e-09
4.2728e-09
5.71359e-09
7.17486e-09
8.50504e-09
9.61714e-09
1.06341e-08
1.15618e-08
1.23302e-08
1.29709e-08
1.32383e-08
1.32258e-08
1.31794e-08
1.30635e-08
1.27247e-08
1.23178e-08
1.22208e-08
1.21035e-08
1.18896e-08
1.16838e-08
1.1326e-08
1.1158e-08
1.11738e-08
1.12981e-08
1.1424e-08
1.15022e-08
1.1615e-08
1.15435e-08
1.15573e-08
1.16241e-08
1.1739e-08
1.19099e-08
1.21209e-08
1.23817e-08
1.26944e-08
1.30076e-08
1.33542e-08
1.36602e-08
1.39917e-08
1.43395e-08
1.43626e-08
1.46023e-08
1.51383e-08
1.38144e-08
3.35581e-11
1.84109e-10
6.10922e-10
1.46131e-09
2.77925e-09
4.56826e-09
6.41132e-09
8.24595e-09
9.91991e-09
1.15009e-08
1.27541e-08
1.37538e-08
1.45937e-08
1.52993e-08
1.58609e-08
1.62889e-08
1.62573e-08
1.60366e-08
1.57134e-08
1.51876e-08
1.47831e-08
1.4658e-08
1.47585e-08
1.44892e-08
1.37464e-08
1.28651e-08
1.25674e-08
1.24854e-08
1.25399e-08
1.26003e-08
1.26027e-08
1.2638e-08
1.27204e-08
1.27541e-08
1.27053e-08
1.27115e-08
1.27746e-08
1.28884e-08
1.30527e-08
1.32753e-08
1.35341e-08
1.37854e-08
1.40765e-08
1.43154e-08
1.45868e-08
1.48449e-08
1.47524e-08
1.49096e-08
1.52958e-08
1.363e-08
1.19115e-10
1.0151e-09
3.40791e-09
6.91231e-09
1.00897e-08
1.28361e-08
1.49283e-08
1.68323e-08
1.82934e-08
1.95392e-08
2.02013e-08
2.0682e-08
2.10229e-08
2.12474e-08
2.13455e-08
2.13401e-08
2.07523e-08
1.99977e-08
1.93271e-08
1.88541e-08
1.86225e-08
1.84877e-08
1.81573e-08
1.70297e-08
1.59025e-08
1.50409e-08
1.45445e-08
1.44925e-08
1.43911e-08
1.42748e-08
1.42026e-08
1.41936e-08
1.42716e-08
1.43306e-08
1.42018e-08
1.4125e-08
1.41003e-08
1.41456e-08
1.42559e-08
1.44136e-08
1.45844e-08
1.47558e-08
1.49764e-08
1.51215e-08
1.53048e-08
1.54253e-08
1.51837e-08
1.52448e-08
1.54189e-08
1.33667e-08
8.79851e-09
1.81202e-08
2.26964e-08
2.52687e-08
2.7087e-08
2.8491e-08
2.92264e-08
2.98776e-08
3.03914e-08
3.07784e-08
3.06603e-08
3.05828e-08
3.05233e-08
2.98831e-08
2.91423e-08
2.83855e-08
2.70591e-08
2.60243e-08
2.52082e-08
2.44749e-08
2.34971e-08
2.24432e-08
2.13793e-08
2.02292e-08
1.93059e-08
1.85058e-08
1.76291e-08
1.68867e-08
1.65938e-08
1.63753e-08
1.63041e-08
1.62199e-08
1.61435e-08
1.60785e-08
1.59634e-08
1.57614e-08
1.56581e-08
1.56366e-08
1.56562e-08
1.57054e-08
1.57717e-08
1.58572e-08
1.59798e-08
1.59919e-08
1.60444e-08
1.59992e-08
1.56164e-08
1.5547e-08
1.54509e-08
1.30161e-08
5.22068e-08
6.27203e-08
5.94189e-08
5.59719e-08
5.35096e-08
5.24506e-08
5.04083e-08
4.86679e-08
4.71688e-08
4.55833e-08
4.3918e-08
4.2514e-08
4.12981e-08
4.02679e-08
3.92734e-08
3.74327e-08
3.5478e-08
3.36175e-08
3.18308e-08
3.01093e-08
2.8751e-08
2.7559e-08
2.65315e-08
2.52184e-08
2.37497e-08
2.23925e-08
2.11504e-08
2.00792e-08
1.93618e-08
1.90382e-08
1.87448e-08
1.84909e-08
1.82522e-08
1.80073e-08
1.77861e-08
1.75597e-08
1.73673e-08
1.72275e-08
1.71185e-08
1.70611e-08
1.70224e-08
1.69967e-08
1.69712e-08
1.67947e-08
1.67071e-08
1.65091e-08
1.5956e-08
1.57466e-08
1.53538e-08
1.26049e-08
2.21986e-08
6.93195e-08
8.0804e-08
8.0929e-08
7.80439e-08
7.59685e-08
7.25378e-08
6.89977e-08
6.56395e-08
6.24046e-08
5.9315e-08
5.65253e-08
5.4063e-08
5.18943e-08
5.00183e-08
4.83496e-08
4.54506e-08
4.26942e-08
4.02003e-08
3.79209e-08
3.58171e-08
3.38729e-08
3.20619e-08
3.03096e-08
2.85377e-08
2.68678e-08
2.53439e-08
2.39311e-08
2.26311e-08
2.1832e-08
2.13434e-08
2.08846e-08
2.04616e-08
2.00763e-08
1.97095e-08
1.93499e-08
1.90173e-08
1.87525e-08
1.85382e-08
1.83706e-08
1.81912e-08
1.79998e-08
1.7775e-08
1.74559e-08
1.7253e-08
1.68396e-08
1.61373e-08
1.57675e-08
1.50892e-08
1.21619e-08
6.23578e-09
3.88593e-08
6.19078e-08
7.77955e-08
8.4804e-08
8.69409e-08
8.63238e-08
8.35735e-08
8.02891e-08
7.68237e-08
7.31925e-08
6.96834e-08
6.63825e-08
6.331e-08
6.05188e-08
5.80346e-08
5.54019e-08
5.18375e-08
4.85644e-08
4.5537e-08
4.27467e-08
4.01791e-08
3.77975e-08
3.55714e-08
3.34411e-08
3.14672e-08
2.96372e-08
2.78979e-08
2.62598e-08
2.46844e-08
2.39304e-08
2.3278e-08
2.26675e-08
2.20896e-08
2.15208e-08
2.09897e-08
2.04926e-08
2.01113e-08
1.9766e-08
1.94288e-08
1.90533e-08
1.87194e-08
1.83591e-08
1.78763e-08
1.75154e-08
1.69033e-08
1.60769e-08
1.55783e-08
1.4654e-08
1.15927e-08
1.05483e-09
7.52508e-09
2.53899e-08
4.7498e-08
6.56423e-08
7.72743e-08
8.35495e-08
8.55097e-08
8.61273e-08
8.49776e-08
8.28389e-08
7.97003e-08
7.58866e-08
7.19974e-08
6.83186e-08
6.53365e-08
6.26083e-08
5.90161e-08
5.54879e-08
5.21206e-08
4.89181e-08
4.59032e-08
4.30525e-08
4.03666e-08
3.79393e-08
3.56515e-08
3.34914e-08
3.14613e-08
2.95333e-08
2.76652e-08
2.62291e-08
2.53843e-08
2.45897e-08
2.3838e-08
2.31336e-08
2.24273e-08
2.1742e-08
2.10349e-08
2.05197e-08
2.0078e-08
1.96026e-08
1.91114e-08
1.85831e-08
1.79718e-08
1.74768e-08
1.66837e-08
1.57934e-08
1.51723e-08
1.40612e-08
1.09113e-08
5.8422e-11
6.95861e-10
3.89279e-09
1.65174e-08
3.40363e-08
5.07496e-08
6.35759e-08
7.18967e-08
7.73013e-08
7.94923e-08
8.11913e-08
8.0535e-08
7.90266e-08
7.70217e-08
7.45734e-08
7.21812e-08
6.95572e-08
6.55662e-08
6.15185e-08
5.76399e-08
5.39442e-08
5.04485e-08
4.71406e-08
4.40224e-08
4.13263e-08
3.88693e-08
3.65134e-08
3.42628e-08
3.21098e-08
3.00238e-08
2.80468e-08
2.70425e-08
2.60295e-08
2.5069e-08
2.41703e-08
2.33286e-08
2.25019e-08
2.17174e-08
2.09123e-08
2.02739e-08
1.96749e-08
1.90674e-08
1.8409e-08
1.76984e-08
1.70834e-08
1.61374e-08
1.52181e-08
1.45286e-08
1.34192e-08
1.01659e-08
2.60425e-11
1.3288e-10
5.16869e-10
2.16108e-09
8.38209e-09
2.06955e-08
3.41353e-08
4.60024e-08
5.552e-08
6.21537e-08
6.65425e-08
6.88118e-08
6.99823e-08
6.99399e-08
6.93867e-08
6.91308e-08
6.76934e-08
6.4855e-08
6.16677e-08
5.83747e-08
5.50416e-08
5.175e-08
4.85564e-08
4.54695e-08
4.27236e-08
4.02939e-08
3.79028e-08
3.55642e-08
3.3289e-08
3.10807e-08
2.89415e-08
2.77065e-08
2.66192e-08
2.55766e-08
2.45718e-08
2.36009e-08
2.26723e-08
2.17545e-08
2.08733e-08
2.00197e-08
1.92126e-08
1.85228e-08
1.7755e-08
1.69655e-08
1.62506e-08
1.52174e-08
1.43287e-08
1.36351e-08
1.25351e-08
9.24278e-09
1.23028e-11
5.14783e-11
1.25715e-10
3.43414e-10
1.06655e-09
3.09551e-09
8.49204e-09
1.68342e-08
2.63037e-08
3.52949e-08
4.2793e-08
4.82767e-08
5.23583e-08
5.47887e-08
5.6096e-08
5.68267e-08
5.65216e-08
5.55783e-08
5.42e-08
5.23469e-08
5.02293e-08
4.79099e-08
4.55037e-08
4.30485e-08
4.07047e-08
3.85929e-08
3.64518e-08
3.43066e-08
3.21759e-08
3.00791e-08
2.80573e-08
2.69741e-08
2.59183e-08
2.48737e-08
2.38531e-08
2.28644e-08
2.19004e-08
2.09565e-08
2.00392e-08
1.91349e-08
1.82484e-08
1.7382e-08
1.65164e-08
1.5691e-08
1.49048e-08
1.38939e-08
1.31434e-08
1.24849e-08
1.12178e-08
8.11855e-09
6.82226e-12
2.65464e-11
5.56605e-11
1.05482e-10
2.15649e-10
4.8006e-10
1.12291e-09
2.51917e-09
5.1814e-09
9.76762e-09
1.51809e-08
2.06768e-08
2.56957e-08
2.9898e-08
3.32799e-08
3.59273e-08
3.77958e-08
3.89081e-08
3.94302e-08
3.93942e-08
3.8941e-08
3.80849e-08
3.69575e-08
3.55847e-08
3.40807e-08
3.25963e-08
3.10581e-08
2.94607e-08
2.78158e-08
2.61473e-08
2.51111e-08
2.42405e-08
2.33598e-08
2.24788e-08
2.15849e-08
2.06975e-08
1.98156e-08
1.89466e-08
1.80784e-08
1.72301e-08
1.63905e-08
1.55858e-08
1.47506e-08
1.3923e-08
1.31042e-08
1.21552e-08
1.1501e-08
1.08198e-08
9.65881e-09
6.80012e-09
4.29647e-12
1.58848e-11
3.12966e-11
5.28243e-11
8.40757e-11
1.35383e-10
2.29056e-10
4.15817e-10
7.90456e-10
1.49963e-09
2.68246e-09
4.32623e-09
6.32578e-09
9.06916e-09
1.18751e-08
1.45543e-08
1.69971e-08
1.90867e-08
2.07856e-08
2.21677e-08
2.31614e-08
2.36542e-08
2.39177e-08
2.37868e-08
2.34167e-08
2.28509e-08
2.21586e-08
2.13449e-08
2.08395e-08
2.04089e-08
1.994e-08
1.94445e-08
1.8903e-08
1.83226e-08
1.76864e-08
1.70365e-08
1.63565e-08
1.56559e-08
1.49466e-08
1.42329e-08
1.35146e-08
1.28064e-08
1.2091e-08
1.14083e-08
1.07314e-08
1.00204e-08
9.52382e-09
8.81641e-09
7.80993e-09
5.44215e-09
2.89474e-12
1.0286e-11
1.95088e-11
3.10307e-11
4.58071e-11
6.54159e-11
9.12911e-11
1.30263e-10
1.91428e-10
2.93298e-10
4.61685e-10
7.22754e-10
1.12993e-09
1.7244e-09
2.51835e-09
3.49439e-09
4.60837e-09
5.80656e-09
7.02802e-09
8.2067e-09
9.30889e-09
1.02983e-08
1.11659e-08
1.17922e-08
1.22686e-08
1.26445e-08
1.29599e-08
1.32027e-08
1.33405e-08
1.3384e-08
1.33431e-08
1.32436e-08
1.30764e-08
1.28499e-08
1.25579e-08
1.22236e-08
1.18371e-08
1.14234e-08
1.0981e-08
1.0509e-08
1.00253e-08
9.52646e-09
9.01395e-09
8.50675e-09
8.02607e-09
7.53853e-09
7.14861e-09
6.57278e-09
5.86545e-09
4.06497e-09
2.01376e-12
6.95801e-12
1.29152e-11
1.99956e-11
2.84162e-11
3.85464e-11
5.09847e-11
6.62865e-11
8.51915e-11
1.10694e-10
1.41164e-10
1.81438e-10
2.40116e-10
3.26387e-10
4.53103e-10
6.354e-10
8.89717e-10
1.2303e-09
1.65815e-09
2.1636e-09
2.71217e-09
3.264e-09
3.82124e-09
4.36135e-09
4.86468e-09
5.33219e-09
5.75692e-09
6.13111e-09
6.45248e-09
6.72245e-09
6.95086e-09
7.12086e-09
7.23383e-09
7.28823e-09
7.27871e-09
7.2187e-09
7.10916e-09
6.96374e-09
6.78262e-09
6.57207e-09
6.34688e-09
6.09541e-09
5.83722e-09
5.5725e-09
5.32892e-09
5.08005e-09
4.8454e-09
4.51473e-09
4.0371e-09
2.77948e-09
1.41729e-12
4.80826e-12
8.81089e-12
1.34573e-11
1.88036e-11
2.49429e-11
3.2018e-11
4.02391e-11
4.99084e-11
6.0427e-11
6.99056e-11
8.10396e-11
9.44735e-11
1.11158e-10
1.32883e-10
1.61177e-10
2.00533e-10
2.53258e-10
3.20151e-10
4.05381e-10
5.1452e-10
6.50885e-10
8.14114e-10
1.0029e-09
1.2133e-09
1.43965e-09
1.67443e-09
1.91588e-09
2.15829e-09
2.3999e-09
2.61779e-09
2.80792e-09
2.97098e-09
3.10998e-09
3.22332e-09
3.3051e-09
3.35994e-09
3.3894e-09
3.39058e-09
3.368e-09
3.33008e-09
3.27258e-09
3.21162e-09
3.14052e-09
3.07159e-09
2.9971e-09
2.93481e-09
2.8049e-09
2.51857e-09
1.67635e-09
9.94918e-13
3.33907e-12
6.07635e-12
9.2217e-12
1.27937e-11
1.68194e-11
2.13379e-11
2.64034e-11
3.17864e-11
3.66263e-11
4.16515e-11
4.68891e-11
5.21614e-11
5.76887e-11
6.38502e-11
7.07985e-11
7.87567e-11
8.76883e-11
9.7566e-11
1.09114e-10
1.24493e-10
1.42869e-10
1.66814e-10
1.95682e-10
2.33216e-10
2.79239e-10
3.34256e-10
3.99421e-10
4.73735e-10
5.55782e-10
6.43285e-10
7.36148e-10
8.28155e-10
9.17237e-10
1.00747e-09
1.09094e-09
1.17163e-09
1.24454e-09
1.3073e-09
1.36532e-09
1.41448e-09
1.45378e-09
1.48909e-09
1.51755e-09
1.54464e-09
1.56443e-09
1.58346e-09
1.54103e-09
1.35813e-09
8.56145e-10
6.87296e-13
2.29602e-12
4.16963e-12
6.32001e-12
8.75778e-12
1.14931e-11
1.45378e-11
1.75067e-11
2.04351e-11
2.33838e-11
2.63233e-11
2.92288e-11
3.20871e-11
3.48904e-11
3.76386e-11
4.02809e-11
4.25929e-11
4.4272e-11
4.58204e-11
4.72498e-11
4.85315e-11
5.03487e-11
5.24031e-11
5.45746e-11
5.75423e-11
6.19366e-11
6.69337e-11
7.50421e-11
8.56649e-11
1.02747e-10
1.2183e-10
1.46559e-10
1.73453e-10
2.05485e-10
2.39297e-10
2.77273e-10
3.15793e-10
3.59638e-10
4.03286e-10
4.47687e-10
4.93964e-10
5.39287e-10
5.84738e-10
6.29618e-10
6.73375e-10
7.15505e-10
7.48028e-10
7.2442e-10
6.21475e-10
3.48841e-10
4.58779e-13
1.53574e-12
2.79829e-12
4.25851e-12
5.86313e-12
7.57376e-12
9.38153e-12
1.1254e-11
1.31557e-11
1.50519e-11
1.69103e-11
1.86988e-11
2.0391e-11
2.19629e-11
2.33944e-11
2.45429e-11
2.50843e-11
2.53097e-11
2.51919e-11
2.47737e-11
2.4009e-11
2.28647e-11
2.13181e-11
1.93531e-11
1.70214e-11
1.80794e-11
1.95626e-11
2.12208e-11
2.31809e-11
2.64432e-11
3.05794e-11
3.55896e-11
4.27313e-11
5.09772e-11
6.11413e-11
7.34033e-11
8.69457e-11
1.03618e-10
1.21923e-10
1.41318e-10
1.63455e-10
1.87093e-10
2.11535e-10
2.39933e-10
2.68385e-10
2.9255e-10
2.99812e-10
2.83252e-10
2.26323e-10
1.06414e-10
2.73967e-13
9.26214e-13
1.69531e-12
2.58019e-12
3.57183e-12
4.65467e-12
5.80819e-12
7.00828e-12
8.22877e-12
9.44191e-12
1.06214e-11
1.17408e-11
1.27739e-11
1.36973e-11
1.43411e-11
1.4642e-11
1.46881e-11
1.44503e-11
1.38974e-11
1.29958e-11
1.17039e-11
9.97846e-12
7.77463e-12
7.7016e-12
7.65264e-12
7.54648e-12
7.42979e-12
7.3592e-12
7.40845e-12
7.88165e-12
8.8893e-12
1.03595e-11
1.23392e-11
1.51359e-11
1.87742e-11
2.30815e-11
2.80701e-11
3.42177e-11
4.12437e-11
4.88863e-11
5.70993e-11
6.55989e-11
7.39237e-11
8.23347e-11
9.44664e-11
1.01696e-10
1.02845e-10
9.08443e-11
6.18097e-11
2.83123e-11
1.34984e-13
4.797e-13
9.07324e-13
1.41554e-12
1.99668e-12
2.63902e-12
3.3286e-12
4.04922e-12
4.78289e-12
5.51074e-12
6.21325e-12
6.87173e-12
7.39379e-12
7.74158e-12
7.9378e-12
7.95868e-12
7.77942e-12
7.37225e-12
6.70657e-12
5.74871e-12
4.46479e-12
4.0301e-12
3.79291e-12
3.48415e-12
3.11148e-12
2.69143e-12
2.27641e-12
1.95816e-12
1.70782e-12
1.60681e-12
1.75218e-12
2.18829e-12
2.92408e-12
4.04775e-12
5.58852e-12
7.49326e-12
9.7407e-12
1.22801e-11
1.50424e-11
1.793e-11
2.08237e-11
2.34312e-11
2.54597e-11
2.64658e-11
2.98228e-11
3.21098e-11
3.00197e-11
2.36737e-11
1.46879e-11
6.80083e-12
3.97754e-14
1.75049e-13
3.7397e-13
6.18791e-13
9.02081e-13
1.2167e-12
1.55674e-12
1.91349e-12
2.25547e-12
2.5697e-12
2.84885e-12
3.07685e-12
3.23702e-12
3.31269e-12
3.28613e-12
3.13691e-12
2.84173e-12
2.37688e-12
1.99091e-12
1.89973e-12
1.75615e-12
1.56429e-12
1.30839e-12
9.98058e-13
6.42956e-13
2.37814e-13
3.19791e-14
3.38313e-14
3.66749e-14
4.07281e-14
4.70883e-14
6.08532e-14
7.62753e-14
9.31142e-14
8.00029e-13
1.72074e-12
2.7941e-12
3.97347e-12
5.15733e-12
6.21014e-12
7.12282e-12
7.7525e-12
8.07058e-12
7.76056e-12
7.11166e-12
7.41566e-12
6.2652e-12
4.45081e-12
2.53564e-12
1.13516e-12
1.36979e-15
2.51585e-14
5.62878e-14
8.21916e-14
1.04559e-13
1.19717e-13
1.26233e-13
1.45129e-13
1.72103e-13
1.9691e-13
2.17699e-13
2.32468e-13
2.39243e-13
2.36646e-13
2.23955e-13
1.96841e-13
1.51018e-13
8.37578e-14
6.9662e-15
6.91059e-15
6.74679e-15
6.47175e-15
6.09622e-15
5.65685e-15
5.2094e-15
4.82839e-15
4.61813e-15
4.6725e-15
5.03928e-15
5.76759e-15
6.90128e-15
8.41215e-15
1.02368e-14
1.23095e-14
1.45357e-14
1.6783e-14
1.88935e-14
2.06939e-14
2.19817e-14
2.2574e-14
2.23423e-14
2.65479e-13
4.77923e-13
5.75482e-13
5.71241e-13
4.89791e-13
3.57304e-13
2.2976e-13
1.20492e-13
6.92755e-14
)
;

boundaryField
{
    AXIS
    {
        type            empty;
    }
    OUTLET
    {
        type            calculated;
        value           nonuniform List<scalar> 
25
(
1.39739e-08
1.39243e-08
1.38144e-08
1.363e-08
1.33667e-08
1.30161e-08
1.26049e-08
1.21619e-08
1.15927e-08
1.09113e-08
1.01659e-08
9.24278e-09
8.11855e-09
6.80012e-09
5.44215e-09
4.06497e-09
2.77948e-09
1.67635e-09
8.56145e-10
3.48841e-10
1.06414e-10
2.83123e-11
6.80083e-12
1.13516e-12
6.92755e-14
)
;
    }
    COFLOW
    {
        type            calculated;
        value           uniform 0;
    }
    PILOT
    {
        type            calculated;
        value           uniform 3.19286e-19;
    }
    FUEL
    {
        type            calculated;
        value           uniform 0;
    }
    WALL
    {
        type            calculated;
        value           nonuniform List<scalar> 
50
(
1.36979e-15
2.51585e-14
5.62878e-14
8.21916e-14
1.04559e-13
1.19717e-13
1.26233e-13
1.45129e-13
1.72103e-13
1.9691e-13
2.17699e-13
2.32468e-13
2.39243e-13
2.36646e-13
2.23955e-13
1.96841e-13
1.51018e-13
8.37578e-14
6.9662e-15
6.91059e-15
6.74679e-15
6.47175e-15
6.09622e-15
5.65685e-15
5.2094e-15
4.82839e-15
4.61813e-15
4.6725e-15
5.03928e-15
5.76759e-15
6.90128e-15
8.41215e-15
1.02368e-14
1.23095e-14
1.45357e-14
1.6783e-14
1.88935e-14
2.06939e-14
2.19817e-14
2.2574e-14
2.23423e-14
2.65479e-13
4.77923e-13
5.75482e-13
5.71241e-13
4.89791e-13
3.57304e-13
2.2976e-13
1.20492e-13
6.92755e-14
)
;
    }
    front
    {
        type            wedge;
    }
    back
    {
        type            wedge;
    }
}


// ************************************************************************* //
