/*--------------------------------*- C++ -*----------------------------------*\
| =========                 |                                                 |
| \\      /  F ield         | OpenFOAM: The Open Source CFD Toolbox           |
|  \\    /   O peration     | Version:  2.4.x                                 |
|   \\  /    A nd           | Web:      www.OpenFOAM.org                      |
|    \\/     M anipulation  |                                                 |
\*---------------------------------------------------------------------------*/
FoamFile
{
    version     2.0;
    format      ascii;
    class       volScalarField;
    location    "0.1";
    object      CH2;
}
// * * * * * * * * * * * * * * * * * * * * * * * * * * * * * * * * * * * * * //

dimensions      [0 0 0 0 0 0 0];

internalField   nonuniform List<scalar> 
1250
(
1.08343e-09
4.26735e-09
8.61202e-09
1.49511e-08
2.49042e-08
3.9657e-08
5.98017e-08
8.52446e-08
1.14267e-07
1.43279e-07
1.73317e-07
2.00711e-07
2.2877e-07
2.56199e-07
2.83716e-07
3.10567e-07
3.32014e-07
3.47389e-07
3.63251e-07
3.79215e-07
3.94215e-07
4.09949e-07
4.27891e-07
4.40224e-07
4.49665e-07
4.54986e-07
4.61094e-07
4.67899e-07
4.77025e-07
4.87549e-07
4.98493e-07
5.09262e-07
5.18331e-07
5.25065e-07
5.33878e-07
5.43793e-07
5.54021e-07
5.64991e-07
5.75942e-07
5.86478e-07
5.95823e-07
6.0388e-07
6.11053e-07
6.13568e-07
6.16304e-07
6.1544e-07
6.03012e-07
5.97007e-07
5.83522e-07
4.7698e-07
1.24327e-09
4.87858e-09
9.78345e-09
1.73449e-08
2.94471e-08
4.70935e-08
7.06165e-08
9.90526e-08
1.28033e-07
1.58728e-07
1.89603e-07
2.178e-07
2.45921e-07
2.73656e-07
3.01215e-07
3.27311e-07
3.47858e-07
3.62902e-07
3.78222e-07
3.93254e-07
4.07961e-07
4.23752e-07
4.42178e-07
4.5511e-07
4.64785e-07
4.69376e-07
4.74465e-07
4.81165e-07
4.90043e-07
5.00097e-07
5.10396e-07
5.20578e-07
5.29784e-07
5.36095e-07
5.44278e-07
5.53485e-07
5.63157e-07
5.73476e-07
5.83718e-07
5.93457e-07
6.02049e-07
6.09295e-07
6.15658e-07
6.17325e-07
6.19321e-07
6.17655e-07
6.04269e-07
5.97583e-07
5.82777e-07
4.74004e-07
1.73919e-09
6.70838e-09
1.36971e-08
2.58058e-08
4.50702e-08
7.1173e-08
1.01551e-07
1.32407e-07
1.65259e-07
1.99167e-07
2.31197e-07
2.60015e-07
2.88292e-07
3.15944e-07
3.42004e-07
3.66773e-07
3.84949e-07
3.98636e-07
4.12295e-07
4.25709e-07
4.39851e-07
4.56147e-07
4.75568e-07
4.87081e-07
4.96465e-07
5.00811e-07
5.04406e-07
5.10682e-07
5.18949e-07
5.27781e-07
5.36734e-07
5.45437e-07
5.54308e-07
5.6006e-07
5.66854e-07
5.7444e-07
5.82806e-07
5.91713e-07
6.00291e-07
6.08331e-07
6.15462e-07
6.20906e-07
6.25537e-07
6.25334e-07
6.25772e-07
6.2218e-07
6.0611e-07
5.97566e-07
5.79846e-07
4.67495e-07
3.23595e-09
1.21215e-08
2.81596e-08
5.6636e-08
9.27281e-08
1.29341e-07
1.67355e-07
2.05907e-07
2.428e-07
2.78944e-07
3.10074e-07
3.37576e-07
3.63505e-07
3.88155e-07
4.11206e-07
4.32694e-07
4.46307e-07
4.56731e-07
4.6735e-07
4.79039e-07
4.93214e-07
5.10184e-07
5.26879e-07
5.34358e-07
5.40142e-07
5.48398e-07
5.51545e-07
5.56956e-07
5.63234e-07
5.69809e-07
5.76168e-07
5.82896e-07
5.8986e-07
5.95062e-07
5.99426e-07
6.04903e-07
6.11174e-07
6.17719e-07
6.23781e-07
6.29549e-07
6.34105e-07
6.36878e-07
6.38802e-07
6.35689e-07
6.33544e-07
6.2669e-07
6.07923e-07
5.96874e-07
5.75227e-07
4.57555e-07
1.03358e-08
4.50929e-08
1.05255e-07
1.66882e-07
2.2366e-07
2.74474e-07
3.16288e-07
3.56293e-07
3.9025e-07
4.2146e-07
4.43793e-07
4.63893e-07
4.82276e-07
4.99225e-07
5.15156e-07
5.30458e-07
5.36111e-07
5.4152e-07
5.49323e-07
5.5964e-07
5.70818e-07
5.82064e-07
5.92482e-07
5.95185e-07
5.98937e-07
6.07318e-07
6.17177e-07
6.19478e-07
6.21903e-07
6.24747e-07
6.28297e-07
6.32212e-07
6.35869e-07
6.38497e-07
6.40095e-07
6.42725e-07
6.45877e-07
6.49186e-07
6.522e-07
6.54871e-07
6.55775e-07
6.5518e-07
6.5368e-07
6.46855e-07
6.41377e-07
6.30409e-07
6.07732e-07
5.93934e-07
5.6742e-07
4.44556e-07
3.01146e-07
3.81016e-07
4.09259e-07
4.38248e-07
4.66981e-07
4.95014e-07
5.18879e-07
5.44176e-07
5.68221e-07
5.90985e-07
6.08514e-07
6.28479e-07
6.50092e-07
6.56109e-07
6.597e-07
6.6337e-07
6.59759e-07
6.58981e-07
6.60337e-07
6.63055e-07
6.65554e-07
6.68584e-07
6.72875e-07
6.75149e-07
6.78108e-07
6.83546e-07
6.89822e-07
6.94968e-07
6.93022e-07
6.92131e-07
6.91358e-07
6.90278e-07
6.88964e-07
6.87286e-07
6.85248e-07
6.8423e-07
6.83681e-07
6.83489e-07
6.82514e-07
6.80907e-07
6.77621e-07
6.73155e-07
6.67418e-07
6.56037e-07
6.46751e-07
6.31087e-07
6.0473e-07
5.87613e-07
5.55542e-07
4.2898e-07
1.13432e-06
9.77962e-07
8.73381e-07
8.22277e-07
7.98339e-07
7.99132e-07
7.93123e-07
7.92355e-07
7.95492e-07
7.98737e-07
8.025e-07
8.09723e-07
8.19356e-07
8.31473e-07
8.42564e-07
8.29067e-07
8.14225e-07
8.01974e-07
7.92154e-07
7.84549e-07
7.7954e-07
7.76805e-07
7.76238e-07
7.7311e-07
7.6944e-07
7.68749e-07
7.70442e-07
7.73855e-07
7.73877e-07
7.6682e-07
7.60032e-07
7.53373e-07
7.4648e-07
7.39154e-07
7.3134e-07
7.25149e-07
7.20695e-07
7.15981e-07
7.10534e-07
7.0472e-07
6.96887e-07
6.87757e-07
6.76878e-07
6.60766e-07
6.47507e-07
6.27061e-07
5.96976e-07
5.76872e-07
5.39471e-07
4.11735e-07
6.2535e-07
1.09306e-06
1.13489e-06
1.12403e-06
1.09723e-06
1.09088e-06
1.07347e-06
1.05585e-06
1.04061e-06
1.02895e-06
1.01926e-06
1.01265e-06
1.00941e-06
1.00892e-06
1.01137e-06
1.01745e-06
9.90082e-07
9.65087e-07
9.43822e-07
9.25538e-07
9.09836e-07
8.96395e-07
8.84997e-07
8.74681e-07
8.66008e-07
8.59512e-07
8.5525e-07
8.52644e-07
8.51387e-07
8.43054e-07
8.29344e-07
8.15855e-07
8.02726e-07
7.89814e-07
7.76176e-07
7.62184e-07
7.51595e-07
7.42598e-07
7.32567e-07
7.2186e-07
7.08998e-07
6.95163e-07
6.79373e-07
6.59155e-07
6.42287e-07
6.1632e-07
5.83781e-07
5.60345e-07
5.19162e-07
3.92189e-07
1.6818e-07
7.23051e-07
9.15481e-07
1.09013e-06
1.1843e-06
1.22854e-06
1.24792e-06
1.24366e-06
1.23321e-06
1.22418e-06
1.21179e-06
1.19929e-06
1.18812e-06
1.17844e-06
1.17121e-06
1.17081e-06
1.16363e-06
1.12674e-06
1.09371e-06
1.06387e-06
1.03655e-06
1.01225e-06
9.90651e-07
9.71592e-07
9.58535e-07
9.46753e-07
9.36686e-07
9.27198e-07
9.18952e-07
9.11034e-07
8.91846e-07
8.71908e-07
8.51945e-07
8.32425e-07
8.12782e-07
7.93386e-07
7.74194e-07
7.59142e-07
7.44351e-07
7.28867e-07
7.11403e-07
6.93301e-07
6.73025e-07
6.48854e-07
6.28106e-07
5.97708e-07
5.63593e-07
5.38309e-07
4.95114e-07
3.68392e-07
3.02991e-08
1.98676e-07
4.5887e-07
7.31622e-07
9.61493e-07
1.12086e-06
1.22096e-06
1.27425e-06
1.31634e-06
1.34165e-06
1.35316e-06
1.35166e-06
1.34187e-06
1.33175e-06
1.3206e-06
1.31444e-06
1.31122e-06
1.27021e-06
1.22748e-06
1.18764e-06
1.1507e-06
1.11678e-06
1.08521e-06
1.05576e-06
1.03581e-06
1.01848e-06
1.00243e-06
9.86647e-07
9.71847e-07
9.57346e-07
9.38344e-07
9.12203e-07
8.8667e-07
8.61394e-07
8.36778e-07
8.1181e-07
7.87381e-07
7.62813e-07
7.429e-07
7.23833e-07
7.02717e-07
6.80615e-07
6.56334e-07
6.29519e-07
6.0566e-07
5.71799e-07
5.38096e-07
5.11452e-07
4.68161e-07
3.42503e-07
2.54183e-09
2.61207e-08
1.10568e-07
3.25292e-07
5.77086e-07
8.01805e-07
9.82255e-07
1.11196e-06
1.20843e-06
1.27105e-06
1.33332e-06
1.3657e-06
1.38424e-06
1.39412e-06
1.39706e-06
1.40032e-06
1.40003e-06
1.35911e-06
1.31232e-06
1.26727e-06
1.22431e-06
1.18371e-06
1.14533e-06
1.10922e-06
1.0831e-06
1.062e-06
1.04111e-06
1.02078e-06
1.00098e-06
9.81035e-07
9.60814e-07
9.30133e-07
8.99444e-07
8.69858e-07
8.4076e-07
8.12595e-07
7.84488e-07
7.57255e-07
7.29301e-07
7.05057e-07
6.80789e-07
6.55805e-07
6.28657e-07
6.00191e-07
5.74081e-07
5.38098e-07
5.05807e-07
4.79512e-07
4.37335e-07
3.14456e-07
1.36679e-09
6.67578e-09
2.00806e-08
6.90148e-08
1.92383e-07
4.04094e-07
6.12814e-07
7.84731e-07
9.33128e-07
1.04715e-06
1.13189e-06
1.19449e-06
1.24216e-06
1.27412e-06
1.30101e-06
1.33875e-06
1.35126e-06
1.32773e-06
1.29524e-06
1.26006e-06
1.22322e-06
1.1861e-06
1.14961e-06
1.11385e-06
1.08472e-06
1.0622e-06
1.0392e-06
1.01602e-06
9.92872e-07
9.69955e-07
9.4727e-07
9.15664e-07
8.83167e-07
8.51546e-07
8.2043e-07
7.89743e-07
7.59842e-07
7.29899e-07
7.0062e-07
6.71684e-07
6.43319e-07
6.16808e-07
5.87837e-07
5.58616e-07
5.31071e-07
4.95144e-07
4.6597e-07
4.41913e-07
3.97985e-07
2.82309e-07
7.01646e-10
2.918e-09
6.41299e-09
1.43766e-08
3.70638e-08
9.64289e-08
2.02195e-07
3.50458e-07
5.15741e-07
6.72283e-07
8.05991e-07
9.09448e-07
9.94686e-07
1.04983e-06
1.08604e-06
1.11721e-06
1.13173e-06
1.13521e-06
1.13222e-06
1.12234e-06
1.10595e-06
1.08552e-06
1.06283e-06
1.03845e-06
1.01519e-06
9.95551e-07
9.74772e-07
9.53213e-07
9.3105e-07
9.08779e-07
8.85858e-07
8.55063e-07
8.24607e-07
7.94204e-07
7.63979e-07
7.34248e-07
7.04761e-07
6.7541e-07
6.46436e-07
6.17549e-07
5.88856e-07
5.60619e-07
5.31565e-07
5.03125e-07
4.75516e-07
4.42264e-07
4.17561e-07
3.94122e-07
3.50302e-07
2.45337e-07
4.05377e-10
1.56996e-09
3.18103e-09
5.55878e-09
9.9955e-09
1.89861e-08
3.85064e-08
7.8549e-08
1.46918e-07
2.35918e-07
3.38173e-07
4.41998e-07
5.38399e-07
6.19238e-07
6.88012e-07
7.45808e-07
7.9208e-07
8.24961e-07
8.50621e-07
8.66063e-07
8.73841e-07
8.76442e-07
8.74238e-07
8.67378e-07
8.56653e-07
8.4468e-07
8.31202e-07
8.16434e-07
8.00569e-07
7.83892e-07
7.6196e-07
7.38179e-07
7.13884e-07
6.89395e-07
6.64103e-07
6.38714e-07
6.13114e-07
5.87501e-07
5.61568e-07
5.35871e-07
5.09929e-07
4.84109e-07
4.57508e-07
4.31875e-07
4.06497e-07
3.7798e-07
3.57757e-07
3.34425e-07
2.95564e-07
2.05489e-07
2.58802e-10
9.52378e-10
1.85188e-09
3.02811e-09
4.56793e-09
6.78983e-09
1.03272e-08
1.6582e-08
2.80712e-08
4.86918e-08
8.21303e-08
1.27677e-07
1.81621e-07
2.38292e-07
2.96174e-07
3.52206e-07
4.04756e-07
4.52083e-07
4.93591e-07
5.29951e-07
5.60287e-07
5.83049e-07
6.01269e-07
6.13378e-07
6.17926e-07
6.18419e-07
6.17081e-07
6.13579e-07
6.05361e-07
5.94783e-07
5.83039e-07
5.70143e-07
5.55836e-07
5.40449e-07
5.23357e-07
5.05827e-07
4.87258e-07
4.67884e-07
4.47985e-07
4.27701e-07
4.071e-07
3.86474e-07
3.65414e-07
3.45025e-07
3.24548e-07
3.03329e-07
2.88278e-07
2.66489e-07
2.35737e-07
1.63867e-07
1.74237e-10
6.16185e-10
1.15862e-09
1.81341e-09
2.60955e-09
3.59419e-09
4.78417e-09
6.41555e-09
8.73559e-09
1.22592e-08
1.76253e-08
2.53714e-08
3.70182e-08
5.35776e-08
7.53536e-08
1.01924e-07
1.32175e-07
1.64772e-07
1.98268e-07
2.30817e-07
2.61704e-07
2.89895e-07
3.15092e-07
3.32756e-07
3.46707e-07
3.57744e-07
3.66436e-07
3.72664e-07
3.76709e-07
3.78484e-07
3.78552e-07
3.76939e-07
3.73346e-07
3.68049e-07
3.60815e-07
3.52325e-07
3.42238e-07
3.31291e-07
3.19415e-07
3.06534e-07
2.932e-07
2.79286e-07
2.64948e-07
2.50603e-07
2.37065e-07
2.23649e-07
2.12955e-07
1.97387e-07
1.76293e-07
1.23286e-07
1.20042e-10
4.13008e-10
7.61411e-10
1.16636e-09
1.63248e-09
2.17001e-09
2.79746e-09
3.52591e-09
4.36924e-09
5.43324e-09
6.59614e-09
8.01059e-09
9.93813e-09
1.26167e-08
1.63978e-08
2.1669e-08
2.88652e-08
3.83578e-08
5.01613e-08
6.40369e-08
7.90655e-08
9.42132e-08
1.09336e-07
1.23981e-07
1.37741e-07
1.50485e-07
1.62036e-07
1.72344e-07
1.81268e-07
1.88792e-07
1.95246e-07
2.001e-07
2.03584e-07
2.05463e-07
2.05817e-07
2.04832e-07
2.02408e-07
1.98939e-07
1.94414e-07
1.89005e-07
1.83127e-07
1.7644e-07
1.69538e-07
1.62411e-07
1.55896e-07
1.49364e-07
1.43489e-07
1.35287e-07
1.22128e-07
8.55158e-08
8.32141e-11
2.81309e-10
5.12613e-10
7.7663e-10
1.07339e-09
1.40422e-09
1.77234e-09
2.18359e-09
2.64711e-09
3.12781e-09
3.53133e-09
3.9755e-09
4.47685e-09
5.06197e-09
5.79024e-09
6.68805e-09
7.90797e-09
9.48396e-09
1.15075e-08
1.40553e-08
1.72522e-08
2.11756e-08
2.57861e-08
3.10488e-08
3.68715e-08
4.30796e-08
4.94963e-08
5.60665e-08
6.24343e-08
6.86777e-08
7.46173e-08
7.99304e-08
8.45684e-08
8.85299e-08
9.17754e-08
9.41865e-08
9.59394e-08
9.69981e-08
9.72945e-08
9.69462e-08
9.61961e-08
9.49297e-08
9.35881e-08
9.20235e-08
9.05713e-08
8.90177e-08
8.80412e-08
8.52872e-08
7.7273e-08
5.32697e-08
5.73341e-11
1.91869e-10
3.47553e-10
5.24019e-10
7.20762e-10
9.37433e-10
1.17409e-09
1.43138e-09
1.69603e-09
1.92436e-09
2.14963e-09
2.37065e-09
2.57739e-09
2.77787e-09
2.98569e-09
3.20323e-09
3.43475e-09
3.72856e-09
4.06507e-09
4.44037e-09
4.93673e-09
5.50385e-09
6.2343e-09
7.08436e-09
8.18538e-09
9.51372e-09
1.10777e-08
1.29111e-08
1.49756e-08
1.72554e-08
1.96959e-08
2.23e-08
2.48855e-08
2.74002e-08
3.00048e-08
3.24317e-08
3.4716e-08
3.67644e-08
3.85476e-08
4.02058e-08
4.16573e-08
4.28956e-08
4.40976e-08
4.52239e-08
4.64086e-08
4.75267e-08
4.88403e-08
4.83828e-08
4.34072e-08
2.85966e-08
3.87795e-11
1.29251e-10
2.33825e-10
3.5248e-10
4.84948e-10
6.30772e-10
7.89468e-10
9.41033e-10
1.0861e-09
1.22655e-09
1.35986e-09
1.48371e-09
1.59637e-09
1.69636e-09
1.78246e-09
1.8523e-09
1.91339e-09
1.96984e-09
2.01528e-09
2.04956e-09
2.07064e-09
2.10709e-09
2.14257e-09
2.17001e-09
2.216e-09
2.30027e-09
2.389e-09
2.57574e-09
2.8485e-09
3.38379e-09
3.97149e-09
4.74189e-09
5.56628e-09
6.54765e-09
7.56903e-09
8.71274e-09
9.8584e-09
1.11869e-08
1.24952e-08
1.38218e-08
1.52012e-08
1.66784e-08
1.82127e-08
1.97876e-08
2.13944e-08
2.299e-08
2.43709e-08
2.40055e-08
2.11573e-08
1.2663e-08
2.52973e-11
8.45217e-11
1.53501e-10
2.32492e-10
3.18406e-10
4.08785e-10
5.0255e-10
5.97406e-10
6.9089e-10
7.80577e-10
8.6417e-10
9.39416e-10
1.00435e-09
1.05717e-09
1.09624e-09
1.12212e-09
1.13837e-09
1.13851e-09
1.12117e-09
1.08861e-09
1.0373e-09
9.65386e-10
8.71426e-10
7.54287e-10
6.1621e-10
6.53118e-10
7.05269e-10
7.62616e-10
8.29194e-10
9.41914e-10
1.08366e-09
1.25318e-09
1.49575e-09
1.77138e-09
2.10872e-09
2.51252e-09
2.95117e-09
3.49224e-09
4.07811e-09
4.68876e-09
5.38117e-09
6.1081e-09
6.84516e-09
7.90836e-09
9.03508e-09
1.00379e-08
1.05174e-08
1.02324e-08
8.50672e-09
4.33018e-09
1.47905e-11
4.99322e-11
9.11596e-11
1.38217e-10
1.90371e-10
2.46494e-10
3.05159e-10
3.64724e-10
4.23428e-10
4.79427e-10
5.30935e-10
5.76195e-10
6.13451e-10
6.411e-10
6.60001e-10
6.69372e-10
6.66011e-10
6.48495e-10
6.15269e-10
5.64658e-10
4.94581e-10
4.02855e-10
2.87165e-10
2.83118e-10
2.81323e-10
2.77286e-10
2.72725e-10
2.69689e-10
2.7086e-10
2.8755e-10
3.23624e-10
3.76146e-10
4.46525e-10
5.4597e-10
6.74806e-10
8.2591e-10
9.99053e-10
1.21141e-09
1.45152e-09
1.70904e-09
1.98167e-09
2.25896e-09
2.52563e-09
2.81589e-09
3.37856e-09
3.77899e-09
3.98119e-09
3.65762e-09
2.60309e-09
1.24639e-09
7.11899e-12
2.52532e-11
4.76024e-11
7.39009e-11
1.03571e-10
1.35797e-10
1.69627e-10
2.03978e-10
2.37665e-10
2.6945e-10
2.98049e-10
3.2222e-10
3.4184e-10
3.55868e-10
3.62319e-10
3.60035e-10
3.478e-10
3.24245e-10
2.87851e-10
2.36942e-10
1.69818e-10
1.49193e-10
1.40328e-10
1.28803e-10
1.14898e-10
9.92254e-11
8.37344e-11
7.18773e-11
6.2447e-11
5.84851e-11
6.36058e-11
7.94404e-11
1.06251e-10
1.47217e-10
2.03356e-10
2.72553e-10
3.5384e-10
4.45173e-10
5.43871e-10
6.46294e-10
7.48131e-10
8.39084e-10
9.09268e-10
9.43533e-10
1.12857e-09
1.29135e-09
1.25772e-09
1.02319e-09
6.49623e-10
3.04436e-10
2.02457e-12
8.87938e-12
1.88193e-11
3.08238e-11
4.43916e-11
5.90274e-11
7.42908e-11
8.96009e-11
1.04624e-10
1.18663e-10
1.30844e-10
1.40386e-10
1.46479e-10
1.48318e-10
1.4505e-10
1.35678e-10
1.19058e-10
9.40251e-11
7.39828e-11
7.05671e-11
6.52066e-11
5.80458e-11
4.84963e-11
3.69137e-11
2.36569e-11
8.53119e-12
8.40466e-13
8.88743e-13
9.62837e-13
1.06831e-12
1.23441e-12
1.5979e-12
2.0037e-12
2.44513e-12
2.85445e-11
6.25239e-11
1.02067e-10
1.45427e-10
1.88863e-10
2.27421e-10
2.60826e-10
2.83885e-10
2.95493e-10
2.8412e-10
2.63404e-10
2.98232e-10
2.62721e-10
1.91256e-10
1.1026e-10
4.96794e-11
6.57124e-14
1.1713e-12
2.58e-12
3.66727e-12
4.51246e-12
4.93171e-12
4.85102e-12
5.41284e-12
6.41554e-12
7.3362e-12
8.10582e-12
8.64988e-12
8.89501e-12
8.79008e-12
8.3086e-12
7.28922e-12
5.57207e-12
3.05522e-12
1.83489e-13
1.82047e-13
1.77757e-13
1.70538e-13
1.60667e-13
1.49106e-13
1.37323e-13
1.27281e-13
1.21728e-13
1.23139e-13
1.32766e-13
1.51893e-13
1.81655e-13
2.21285e-13
2.69094e-13
3.23335e-13
3.81512e-13
4.40166e-13
4.95182e-13
5.4207e-13
5.75603e-13
5.91054e-13
5.85107e-13
9.64191e-12
1.75818e-11
2.12681e-11
2.11729e-11
1.81947e-11
1.32967e-11
8.56141e-12
4.49258e-12
2.5868e-12
)
;

boundaryField
{
    AXIS
    {
        type            empty;
    }
    OUTLET
    {
        type            calculated;
        value           nonuniform List<scalar> 
25
(
4.7698e-07
4.74004e-07
4.67495e-07
4.57555e-07
4.44556e-07
4.2898e-07
4.11735e-07
3.92189e-07
3.68392e-07
3.42503e-07
3.14456e-07
2.82309e-07
2.45337e-07
2.05489e-07
1.63867e-07
1.23286e-07
8.55158e-08
5.32697e-08
2.85966e-08
1.2663e-08
4.33018e-09
1.24639e-09
3.04436e-10
4.96794e-11
2.5868e-12
)
;
    }
    COFLOW
    {
        type            calculated;
        value           uniform 0;
    }
    PILOT
    {
        type            calculated;
        value           uniform 1.44733e-18;
    }
    FUEL
    {
        type            calculated;
        value           uniform 0;
    }
    WALL
    {
        type            calculated;
        value           nonuniform List<scalar> 
50
(
6.57124e-14
1.1713e-12
2.58e-12
3.66727e-12
4.51246e-12
4.93171e-12
4.85102e-12
5.41284e-12
6.41554e-12
7.3362e-12
8.10582e-12
8.64988e-12
8.89501e-12
8.79008e-12
8.3086e-12
7.28922e-12
5.57207e-12
3.05522e-12
1.83489e-13
1.82047e-13
1.77757e-13
1.70538e-13
1.60667e-13
1.49106e-13
1.37323e-13
1.27281e-13
1.21728e-13
1.23139e-13
1.32766e-13
1.51893e-13
1.81655e-13
2.21285e-13
2.69094e-13
3.23335e-13
3.81512e-13
4.40166e-13
4.95182e-13
5.4207e-13
5.75603e-13
5.91054e-13
5.85107e-13
9.64191e-12
1.75818e-11
2.12681e-11
2.11729e-11
1.81947e-11
1.32967e-11
8.56141e-12
4.49258e-12
2.5868e-12
)
;
    }
    front
    {
        type            wedge;
    }
    back
    {
        type            wedge;
    }
}


// ************************************************************************* //
