/*--------------------------------*- C++ -*----------------------------------*\
| =========                 |                                                 |
| \\      /  F ield         | OpenFOAM: The Open Source CFD Toolbox           |
|  \\    /   O peration     | Version:  2.4.x                                 |
|   \\  /    A nd           | Web:      www.OpenFOAM.org                      |
|    \\/     M anipulation  |                                                 |
\*---------------------------------------------------------------------------*/
FoamFile
{
    version     2.0;
    format      ascii;
    class       volScalarField;
    location    "0.1";
    object      CH2(S);
}
// * * * * * * * * * * * * * * * * * * * * * * * * * * * * * * * * * * * * * //

dimensions      [0 0 0 0 0 0 0];

internalField   nonuniform List<scalar> 
1250
(
3.97378e-11
1.59272e-10
3.31964e-10
5.99263e-10
1.03574e-09
1.69644e-09
2.60805e-09
3.76525e-09
5.09984e-09
6.52421e-09
7.99948e-09
9.3278e-09
1.06737e-08
1.19654e-08
1.3248e-08
1.44722e-08
1.53989e-08
1.59957e-08
1.65933e-08
1.71744e-08
1.76888e-08
1.82018e-08
1.87778e-08
1.91028e-08
1.93991e-08
1.95489e-08
1.97164e-08
1.98969e-08
2.02018e-08
2.05943e-08
2.10203e-08
2.14475e-08
2.17886e-08
2.19989e-08
2.23216e-08
2.27234e-08
2.31619e-08
2.3659e-08
2.41893e-08
2.47271e-08
2.52463e-08
2.5728e-08
2.61973e-08
2.64902e-08
2.67901e-08
2.69705e-08
2.66291e-08
2.65495e-08
2.62876e-08
2.20385e-08
4.54382e-11
1.8251e-10
3.80281e-10
7.04116e-10
1.24092e-09
2.03705e-09
3.10684e-09
4.40411e-09
5.8173e-09
7.33292e-09
8.85371e-09
1.02244e-08
1.15706e-08
1.28786e-08
1.41605e-08
1.53396e-08
1.62161e-08
1.6791e-08
1.73548e-08
1.78859e-08
1.83773e-08
1.88744e-08
1.94804e-08
1.98421e-08
2.01015e-08
2.02146e-08
2.03229e-08
2.05017e-08
2.08012e-08
2.11758e-08
2.15742e-08
2.19758e-08
2.23339e-08
2.25265e-08
2.28243e-08
2.31958e-08
2.36108e-08
2.40815e-08
2.45819e-08
2.5086e-08
2.55727e-08
2.60189e-08
2.6452e-08
2.67061e-08
2.69715e-08
2.7114e-08
2.67247e-08
2.66109e-08
2.62819e-08
2.19099e-08
6.30366e-11
2.5302e-10
5.45804e-10
1.08154e-09
1.95406e-09
3.14736e-09
4.58139e-09
6.12998e-09
7.77571e-09
9.46676e-09
1.10498e-08
1.24496e-08
1.38003e-08
1.51e-08
1.62904e-08
1.73919e-08
1.81358e-08
1.8627e-08
1.90957e-08
1.95312e-08
1.99641e-08
2.04731e-08
2.1144e-08
2.14423e-08
2.16188e-08
2.16586e-08
2.16832e-08
2.1851e-08
2.21341e-08
2.24602e-08
2.28003e-08
2.31368e-08
2.34972e-08
2.36741e-08
2.39175e-08
2.42187e-08
2.45783e-08
2.49922e-08
2.54213e-08
2.58535e-08
2.62763e-08
2.66432e-08
2.69988e-08
2.71672e-08
2.736e-08
2.74121e-08
2.68899e-08
2.66838e-08
2.62049e-08
2.16283e-08
1.15864e-10
4.71236e-10
1.18585e-09
2.49232e-09
4.22221e-09
6.11232e-09
8.07113e-09
1.00479e-08
1.19147e-08
1.37252e-08
1.52549e-08
1.65752e-08
1.77876e-08
1.89101e-08
1.99267e-08
2.08421e-08
2.1328e-08
2.16306e-08
2.19198e-08
2.2224e-08
2.2636e-08
2.3193e-08
2.37529e-08
2.38407e-08
2.37886e-08
2.38226e-08
2.38396e-08
2.39869e-08
2.41925e-08
2.44194e-08
2.46425e-08
2.48977e-08
2.51789e-08
2.53697e-08
2.55065e-08
2.57157e-08
2.59878e-08
2.63013e-08
2.66227e-08
2.69573e-08
2.72667e-08
2.75144e-08
2.77494e-08
2.77826e-08
2.78545e-08
2.77509e-08
2.70898e-08
2.67589e-08
2.60753e-08
2.11935e-08
3.75053e-10
1.91923e-09
4.87469e-09
8.20949e-09
1.1265e-08
1.39715e-08
1.61479e-08
1.82012e-08
1.9896e-08
2.14227e-08
2.24554e-08
2.33494e-08
2.4134e-08
2.48269e-08
2.54399e-08
2.59945e-08
2.603e-08
2.60263e-08
2.61234e-08
2.63438e-08
2.66195e-08
2.69031e-08
2.71269e-08
2.68976e-08
2.66951e-08
2.67268e-08
2.68838e-08
2.6904e-08
2.69337e-08
2.69911e-08
2.70949e-08
2.72317e-08
2.73792e-08
2.74907e-08
2.7508e-08
2.75947e-08
2.77323e-08
2.79066e-08
2.80965e-08
2.82953e-08
2.84415e-08
2.85377e-08
2.86184e-08
2.8476e-08
2.83897e-08
2.80861e-08
2.7226e-08
2.67569e-08
2.58126e-08
2.06192e-08
1.36621e-08
1.95048e-08
2.20454e-08
2.39315e-08
2.55613e-08
2.70316e-08
2.81274e-08
2.92435e-08
3.02632e-08
3.11949e-08
3.17892e-08
3.24786e-08
3.32263e-08
3.32468e-08
3.31474e-08
3.30448e-08
3.25348e-08
3.21756e-08
3.19313e-08
3.17566e-08
3.15514e-08
3.13465e-08
3.11891e-08
3.09153e-08
3.06887e-08
3.0582e-08
3.05033e-08
3.04412e-08
3.02725e-08
3.01672e-08
3.00957e-08
3.00194e-08
2.99434e-08
2.98636e-08
2.97636e-08
2.96878e-08
2.96659e-08
2.96888e-08
2.97024e-08
2.971e-08
2.96677e-08
2.95884e-08
2.94727e-08
2.91111e-08
2.88391e-08
2.83048e-08
2.72542e-08
2.66139e-08
2.53674e-08
1.99237e-08
5.73267e-08
5.5499e-08
5.07317e-08
4.77781e-08
4.61171e-08
4.58076e-08
4.49186e-08
4.43108e-08
4.39163e-08
4.35087e-08
4.31033e-08
4.28973e-08
4.28301e-08
4.29055e-08
4.29548e-08
4.18913e-08
4.07551e-08
3.97437e-08
3.88453e-08
3.80493e-08
3.74309e-08
3.69332e-08
3.65509e-08
3.60052e-08
3.53993e-08
3.49414e-08
3.46068e-08
3.43736e-08
3.4124e-08
3.37515e-08
3.34047e-08
3.30782e-08
3.27538e-08
3.24202e-08
3.20795e-08
3.18031e-08
3.16093e-08
3.14298e-08
3.12414e-08
3.10613e-08
3.08116e-08
3.05155e-08
3.01556e-08
2.95584e-08
2.90913e-08
2.83217e-08
2.70709e-08
2.62708e-08
2.47246e-08
1.9149e-08
2.97024e-08
6.14381e-08
6.69253e-08
6.66566e-08
6.47899e-08
6.3908e-08
6.21684e-08
6.03733e-08
5.87134e-08
5.72429e-08
5.5887e-08
5.47281e-08
5.37874e-08
5.30347e-08
5.24771e-08
5.21328e-08
5.02593e-08
4.85061e-08
4.69619e-08
4.55852e-08
4.43528e-08
4.32469e-08
4.22544e-08
4.13125e-08
4.0423e-08
3.96561e-08
3.90175e-08
3.8476e-08
3.80155e-08
3.74531e-08
3.67962e-08
3.61624e-08
3.55572e-08
3.49747e-08
3.43718e-08
3.3762e-08
3.33013e-08
3.29314e-08
3.25386e-08
3.21345e-08
3.16478e-08
3.11241e-08
3.0522e-08
2.9721e-08
2.90764e-08
2.80267e-08
2.66324e-08
2.56524e-08
2.38736e-08
1.82703e-08
8.13843e-09
3.80481e-08
5.26586e-08
6.42008e-08
6.99281e-08
7.22581e-08
7.27792e-08
7.17388e-08
7.02846e-08
6.88471e-08
6.72249e-08
6.56222e-08
6.41256e-08
6.27494e-08
6.15468e-08
6.07063e-08
5.95946e-08
5.71604e-08
5.4947e-08
5.29196e-08
5.10573e-08
4.93727e-08
4.78446e-08
4.64564e-08
4.53295e-08
4.42855e-08
4.33456e-08
4.24559e-08
4.16436e-08
4.08664e-08
3.99337e-08
3.90065e-08
3.80916e-08
3.72065e-08
3.63267e-08
3.54684e-08
3.46287e-08
3.39879e-08
3.33746e-08
3.27424e-08
3.20294e-08
3.13002e-08
3.0481e-08
2.94767e-08
2.86336e-08
2.73515e-08
2.58535e-08
2.47615e-08
2.28337e-08
1.72093e-08
1.46586e-09
9.53163e-09
2.43982e-08
4.13386e-08
5.54984e-08
6.50279e-08
7.06921e-08
7.32638e-08
7.50063e-08
7.55661e-08
7.52986e-08
7.42229e-08
7.26616e-08
7.11307e-08
6.95976e-08
6.83985e-08
6.73788e-08
6.47215e-08
6.2029e-08
5.95012e-08
5.71384e-08
5.49513e-08
5.29049e-08
5.09884e-08
4.95205e-08
4.81932e-08
4.69496e-08
4.57484e-08
4.46155e-08
4.35169e-08
4.23878e-08
4.11758e-08
4.00026e-08
3.88515e-08
3.774e-08
3.66186e-08
3.55278e-08
3.4433e-08
3.3578e-08
3.27786e-08
3.18923e-08
3.09632e-08
2.99393e-08
2.87922e-08
2.77872e-08
2.63145e-08
2.48085e-08
2.36249e-08
2.16451e-08
1.60393e-08
1.15945e-10
1.17091e-09
5.21742e-09
1.68031e-08
3.13991e-08
4.48297e-08
5.54558e-08
6.28132e-08
6.80137e-08
7.09563e-08
7.37972e-08
7.47798e-08
7.49563e-08
7.46324e-08
7.39132e-08
7.3223e-08
7.23435e-08
6.96473e-08
6.67226e-08
6.39072e-08
6.12208e-08
5.86786e-08
5.62731e-08
5.4007e-08
5.22437e-08
5.07392e-08
4.92689e-08
4.78485e-08
4.64756e-08
4.51173e-08
4.3783e-08
4.23553e-08
4.09323e-08
3.9568e-08
3.82385e-08
3.69612e-08
3.56924e-08
3.44704e-08
3.32175e-08
3.21603e-08
3.11152e-08
3.00393e-08
2.88642e-08
2.76202e-08
2.64903e-08
2.48872e-08
2.34213e-08
2.2231e-08
2.03083e-08
1.47622e-08
5.96372e-11
2.86803e-10
8.9105e-10
3.17931e-09
9.53633e-09
2.09183e-08
3.26406e-08
4.25689e-08
5.09356e-08
5.71172e-08
6.15232e-08
6.44724e-08
6.65326e-08
6.76346e-08
6.83974e-08
6.97103e-08
6.97901e-08
6.81361e-08
6.60097e-08
6.37471e-08
6.14089e-08
5.90703e-08
5.67822e-08
5.45512e-08
5.2669e-08
5.11289e-08
4.95814e-08
4.8043e-08
4.65246e-08
4.50358e-08
4.35776e-08
4.20537e-08
4.05414e-08
3.90762e-08
3.76415e-08
3.62327e-08
3.48666e-08
3.35035e-08
3.21766e-08
3.08686e-08
2.95983e-08
2.8436e-08
2.71544e-08
2.58538e-08
2.46358e-08
2.30064e-08
2.16647e-08
2.05601e-08
1.8566e-08
1.32811e-08
2.99043e-11
1.2334e-10
2.73191e-10
6.3028e-10
1.68012e-09
4.46967e-09
9.93216e-09
1.78071e-08
2.664e-08
3.50179e-08
4.21433e-08
4.75867e-08
5.1936e-08
5.46023e-08
5.62944e-08
5.76982e-08
5.81775e-08
5.80544e-08
5.7574e-08
5.67124e-08
5.55145e-08
5.4105e-08
5.25825e-08
5.09796e-08
4.94482e-08
4.81187e-08
4.67393e-08
4.53305e-08
4.39045e-08
4.24853e-08
4.10645e-08
3.96168e-08
3.81903e-08
3.677e-08
3.5364e-08
3.39861e-08
3.26242e-08
3.12721e-08
2.99419e-08
2.86185e-08
2.73077e-08
2.60188e-08
2.46997e-08
2.34149e-08
2.21702e-08
2.06422e-08
1.94978e-08
1.8424e-08
1.6405e-08
1.15603e-08
1.70699e-11
6.59342e-11
1.33769e-10
2.36016e-10
4.32298e-10
8.42645e-10
1.75359e-09
3.64355e-09
6.94545e-09
1.15472e-08
1.68766e-08
2.22922e-08
2.73022e-08
3.14974e-08
3.50191e-08
3.79187e-08
4.01859e-08
4.17278e-08
4.28522e-08
4.34195e-08
4.35794e-08
4.34534e-08
4.30713e-08
4.24426e-08
4.16262e-08
4.07676e-08
3.98386e-08
3.88469e-08
3.78031e-08
3.67241e-08
3.56227e-08
3.44979e-08
3.33514e-08
3.21978e-08
3.10108e-08
2.98223e-08
2.86274e-08
2.74356e-08
2.62316e-08
2.50417e-08
2.38425e-08
2.26515e-08
2.14229e-08
2.02355e-08
1.90613e-08
1.77323e-08
1.67898e-08
1.57119e-08
1.3896e-08
9.68866e-09
1.0856e-11
3.99267e-11
7.76731e-11
1.27505e-10
1.9381e-10
2.91555e-10
4.50814e-10
7.38365e-10
1.27489e-09
2.24683e-09
3.83051e-09
5.99517e-09
8.5727e-09
1.14515e-08
1.43938e-08
1.72331e-08
1.98786e-08
2.2232e-08
2.42613e-08
2.60141e-08
2.74271e-08
2.84237e-08
2.91947e-08
2.96207e-08
2.96934e-08
2.95624e-08
2.93314e-08
2.89868e-08
2.85478e-08
2.80401e-08
2.74781e-08
2.68644e-08
2.61851e-08
2.54551e-08
2.46463e-08
2.38174e-08
2.29413e-08
2.20292e-08
2.10938e-08
2.01419e-08
1.91764e-08
1.82112e-08
1.72254e-08
1.62724e-08
1.53144e-08
1.43162e-08
1.36071e-08
1.25773e-08
1.11132e-08
7.73092e-09
7.31195e-12
2.58674e-11
4.8685e-11
7.63875e-11
1.10399e-10
1.53006e-10
2.05278e-10
2.78103e-10
3.83331e-10
5.45511e-10
7.95493e-10
1.16022e-09
1.71201e-09
2.50009e-09
3.53908e-09
4.8083e-09
6.25385e-09
7.81091e-09
9.40841e-09
1.0959e-08
1.24265e-08
1.3762e-08
1.49519e-08
1.57909e-08
1.64524e-08
1.69757e-08
1.73909e-08
1.76913e-08
1.78854e-08
1.79704e-08
1.79709e-08
1.7892e-08
1.77192e-08
1.7465e-08
1.71196e-08
1.67149e-08
1.62352e-08
1.57152e-08
1.51517e-08
1.45414e-08
1.39103e-08
1.32517e-08
1.25716e-08
1.18915e-08
1.12482e-08
1.06063e-08
1.00918e-08
9.33787e-09
8.32616e-09
5.81253e-09
5.05336e-12
1.73974e-11
3.21113e-11
4.92912e-11
6.92054e-11
9.2383e-11
1.19732e-10
1.51858e-10
1.89504e-10
2.37573e-10
2.90677e-10
3.56011e-10
4.46012e-10
5.72192e-10
7.51346e-10
1.00222e-09
1.34565e-09
1.79944e-09
2.36432e-09
3.02859e-09
3.74759e-09
4.47101e-09
5.19446e-09
5.8956e-09
6.55428e-09
7.16485e-09
7.71916e-09
8.21395e-09
8.64285e-09
9.00437e-09
9.31426e-09
9.54811e-09
9.71544e-09
9.80622e-09
9.8224e-09
9.77415e-09
9.65751e-09
9.49115e-09
9.27445e-09
9.01575e-09
8.73473e-09
8.41492e-09
8.08427e-09
7.74229e-09
7.4278e-09
7.10974e-09
6.81817e-09
6.40831e-09
5.7683e-09
4.02569e-09
3.51991e-12
1.19073e-11
2.17241e-11
3.29741e-11
4.56923e-11
5.99762e-11
7.60116e-11
9.41028e-11
1.14707e-10
1.3627e-10
1.54536e-10
1.74908e-10
1.98208e-10
2.25719e-10
2.60206e-10
3.03116e-10
3.61516e-10
4.37316e-10
5.33459e-10
6.54261e-10
8.06263e-10
9.93275e-10
1.21367e-09
1.46578e-09
1.74508e-09
2.04348e-09
2.3524e-09
2.66905e-09
2.97741e-09
3.28031e-09
3.56723e-09
3.82362e-09
4.04713e-09
4.23799e-09
4.39433e-09
4.51051e-09
4.59464e-09
4.64534e-09
4.65927e-09
4.64201e-09
4.60506e-09
4.54264e-09
4.4758e-09
4.3971e-09
4.32222e-09
4.24062e-09
4.18238e-09
4.03605e-09
3.64587e-09
2.49934e-09
2.43967e-12
8.16951e-12
1.48149e-11
2.23743e-11
3.08445e-11
4.02321e-11
5.05644e-11
6.18952e-11
7.36446e-11
8.38445e-11
9.40335e-11
1.04182e-10
1.13854e-10
1.23429e-10
1.33552e-10
1.44366e-10
1.56106e-10
1.70222e-10
1.86025e-10
2.03785e-10
2.27277e-10
2.5432e-10
2.89206e-10
3.30049e-10
3.82969e-10
4.46988e-10
5.22561e-10
6.11295e-10
7.1142e-10
8.21972e-10
9.40228e-10
1.06625e-09
1.19138e-09
1.31306e-09
1.43863e-09
1.55555e-09
1.66576e-09
1.76459e-09
1.85047e-09
1.93e-09
1.99912e-09
2.05728e-09
2.11272e-09
2.16304e-09
2.2148e-09
2.26158e-09
2.31467e-09
2.28278e-09
2.03969e-09
1.33512e-09
1.66138e-12
5.54041e-12
1.00332e-11
1.51473e-11
2.0882e-11
2.72304e-11
3.41859e-11
4.08539e-11
4.72796e-11
5.35652e-11
5.96105e-11
6.5326e-11
7.06474e-11
7.55206e-11
7.99058e-11
8.36963e-11
8.69777e-11
8.96736e-11
9.19094e-11
9.36836e-11
9.49095e-11
9.68982e-11
9.89349e-11
1.00712e-10
1.03466e-10
1.08156e-10
1.13213e-10
1.23021e-10
1.36863e-10
1.62641e-10
1.90991e-10
2.28063e-10
2.67796e-10
3.15051e-10
3.643e-10
4.19423e-10
4.74713e-10
5.38604e-10
6.016e-10
6.65464e-10
7.31851e-10
8.01187e-10
8.72436e-10
9.44686e-10
1.01747e-09
1.08899e-09
1.14907e-09
1.12667e-09
9.87777e-10
5.86625e-10
1.09193e-12
3.65008e-12
6.63515e-12
1.00635e-11
1.38014e-11
1.77454e-11
2.18565e-11
2.60411e-11
3.01985e-11
3.42298e-11
3.80416e-11
4.15425e-11
4.46533e-11
4.73022e-11
4.94243e-11
5.09425e-11
5.17525e-11
5.18467e-11
5.11641e-11
4.98039e-11
4.76222e-11
4.45386e-11
4.04925e-11
3.54368e-11
2.94751e-11
3.12393e-11
3.37297e-11
3.64739e-11
3.96666e-11
4.50586e-11
5.18459e-11
5.99739e-11
7.15889e-11
8.48073e-11
1.00987e-10
1.20357e-10
1.41431e-10
1.67394e-10
1.95538e-10
2.24919e-10
2.5823e-10
2.93258e-10
3.2885e-10
3.77473e-10
4.28279e-10
4.72913e-10
4.92543e-10
4.76146e-10
3.93404e-10
1.98718e-10
6.42456e-13
2.16962e-12
3.96351e-12
6.01522e-12
8.29561e-12
1.0759e-11
1.33469e-11
1.59921e-11
1.8622e-11
2.11608e-11
2.35352e-11
2.5673e-11
2.7502e-11
2.8957e-11
2.99507e-11
3.0417e-11
3.03154e-11
2.95824e-11
2.81488e-11
2.59399e-11
2.28633e-11
1.8822e-11
1.37137e-11
1.35355e-11
1.34476e-11
1.32536e-11
1.30355e-11
1.28914e-11
1.29494e-11
1.37475e-11
1.54713e-11
1.79824e-11
2.13487e-11
2.61026e-11
3.22612e-11
3.94891e-11
4.77778e-11
5.79414e-11
6.94411e-11
8.17897e-11
9.48796e-11
1.08216e-10
1.21064e-10
1.34762e-10
1.59717e-10
1.76932e-10
1.84711e-10
1.68528e-10
1.19295e-10
5.69142e-11
3.1123e-13
1.10454e-12
2.08394e-12
3.23947e-12
4.5479e-12
5.9759e-12
7.48436e-12
9.02872e-12
1.056e-11
1.20272e-11
1.33771e-11
1.45588e-11
1.55061e-11
1.61617e-11
1.64791e-11
1.64067e-11
1.58899e-11
1.48675e-11
1.32719e-11
1.10281e-11
8.06048e-12
7.13003e-12
6.70691e-12
6.15673e-12
5.49292e-12
4.74474e-12
4.00526e-12
3.43879e-12
2.98904e-12
2.801e-12
3.04696e-12
3.80464e-12
5.08665e-12
7.04456e-12
9.72663e-12
1.30324e-11
1.69165e-11
2.1282e-11
2.60018e-11
3.09026e-11
3.57788e-11
4.01376e-11
4.35048e-11
4.51543e-11
5.32053e-11
6.00265e-11
5.79917e-11
4.69355e-11
2.97073e-11
1.39048e-11
8.94006e-14
3.92469e-13
8.33678e-13
1.3694e-12
1.97902e-12
2.64229e-12
3.34151e-12
4.05276e-12
4.74439e-12
5.38603e-12
5.94564e-12
6.3882e-12
6.67734e-12
6.77693e-12
6.64864e-12
6.24773e-12
5.52297e-12
4.4222e-12
3.53458e-12
3.37159e-12
3.1157e-12
2.77384e-12
2.31792e-12
1.76494e-12
1.13205e-12
4.09938e-13
4.28276e-14
4.52894e-14
4.90679e-14
5.44473e-14
6.29131e-14
8.1407e-14
1.02061e-13
1.24536e-13
1.37155e-12
2.9947e-12
4.88361e-12
6.95499e-12
9.03037e-12
1.0873e-11
1.24697e-11
1.35725e-11
1.4129e-11
1.35882e-11
1.25654e-11
1.39482e-11
1.21741e-11
8.81757e-12
5.07192e-12
2.28259e-12
2.95222e-15
5.30905e-14
1.17338e-13
1.67785e-13
2.08018e-13
2.29833e-13
2.2995e-13
2.58527e-13
3.06436e-13
3.50435e-13
3.87226e-13
4.13253e-13
4.2501e-13
4.20054e-13
3.97118e-13
3.48497e-13
2.66556e-13
1.46428e-13
9.34824e-15
9.27466e-15
9.05602e-15
8.6881e-15
8.1851e-15
7.59607e-15
6.99574e-15
6.48414e-15
6.20133e-15
6.27329e-15
6.76392e-15
7.73864e-15
9.25535e-15
1.12751e-14
1.3712e-14
1.6477e-14
1.94429e-14
2.24336e-14
2.52391e-14
2.76302e-14
2.93404e-14
3.01282e-14
2.98245e-14
4.62243e-13
8.41187e-13
1.0169e-12
1.01197e-12
8.69409e-13
6.35252e-13
4.0897e-13
2.14598e-13
1.23539e-13
)
;

boundaryField
{
    AXIS
    {
        type            empty;
    }
    OUTLET
    {
        type            calculated;
        value           nonuniform List<scalar> 
25
(
2.20385e-08
2.19099e-08
2.16283e-08
2.11935e-08
2.06192e-08
1.99237e-08
1.9149e-08
1.82703e-08
1.72093e-08
1.60393e-08
1.47622e-08
1.32811e-08
1.15603e-08
9.68866e-09
7.73092e-09
5.81253e-09
4.02569e-09
2.49934e-09
1.33512e-09
5.86625e-10
1.98718e-10
5.69142e-11
1.39048e-11
2.28259e-12
1.23539e-13
)
;
    }
    COFLOW
    {
        type            calculated;
        value           uniform 0;
    }
    PILOT
    {
        type            calculated;
        value           uniform 8.78509e-20;
    }
    FUEL
    {
        type            calculated;
        value           uniform 0;
    }
    WALL
    {
        type            calculated;
        value           nonuniform List<scalar> 
50
(
2.95222e-15
5.30905e-14
1.17338e-13
1.67785e-13
2.08018e-13
2.29833e-13
2.2995e-13
2.58527e-13
3.06436e-13
3.50435e-13
3.87226e-13
4.13253e-13
4.2501e-13
4.20054e-13
3.97118e-13
3.48497e-13
2.66556e-13
1.46428e-13
9.34824e-15
9.27466e-15
9.05602e-15
8.6881e-15
8.1851e-15
7.59607e-15
6.99574e-15
6.48414e-15
6.20133e-15
6.27329e-15
6.76392e-15
7.73864e-15
9.25535e-15
1.12751e-14
1.3712e-14
1.6477e-14
1.94429e-14
2.24336e-14
2.52391e-14
2.76302e-14
2.93404e-14
3.01282e-14
2.98245e-14
4.62243e-13
8.41187e-13
1.0169e-12
1.01197e-12
8.69409e-13
6.35252e-13
4.0897e-13
2.14598e-13
1.23539e-13
)
;
    }
    front
    {
        type            wedge;
    }
    back
    {
        type            wedge;
    }
}


// ************************************************************************* //
