/*--------------------------------*- C++ -*----------------------------------*\
| =========                 |                                                 |
| \\      /  F ield         | OpenFOAM: The Open Source CFD Toolbox           |
|  \\    /   O peration     | Version:  2.4.x                                 |
|   \\  /    A nd           | Web:      www.OpenFOAM.org                      |
|    \\/     M anipulation  |                                                 |
\*---------------------------------------------------------------------------*/
FoamFile
{
    version     2.0;
    format      ascii;
    class       volScalarField;
    location    "0.1";
    object      CH2CO;
}
// * * * * * * * * * * * * * * * * * * * * * * * * * * * * * * * * * * * * * //

dimensions      [0 0 0 0 0 0 0];

internalField   nonuniform List<scalar> 
1250
(
4.8017e-06
1.7103e-05
2.88315e-05
3.91655e-05
4.8743e-05
5.76652e-05
6.61074e-05
7.42016e-05
8.27245e-05
9.42215e-05
0.00010666
0.000120653
0.000135533
0.000151111
0.000166749
0.000183185
0.000200535
0.000219172
0.000237723
0.000256349
0.000274568
0.000292463
0.000309604
0.000327451
0.000344986
0.000360603
0.000373688
0.000383353
0.000390265
0.000393775
0.000394228
0.000391734
0.000386109
0.000376903
0.000364632
0.000349464
0.000332051
0.000312871
0.000292363
0.000271061
0.000249253
0.000227645
0.000206518
0.000185277
0.000166494
0.000146759
0.000129381
0.000119119
0.000106135
6.75337e-05
5.68951e-06
1.9352e-05
3.12399e-05
4.14869e-05
5.07471e-05
5.9228e-05
6.71278e-05
7.46797e-05
8.5044e-05
9.65654e-05
0.000109035
0.000122975
0.000137928
0.000153241
0.000168877
0.000185261
0.000202583
0.000220959
0.000239451
0.000257788
0.000275862
0.000293482
0.000310333
0.000327796
0.000344499
0.000359871
0.000372349
0.00038176
0.0003882
0.000391369
0.00039153
0.000388731
0.000382949
0.000373639
0.000361271
0.000346101
0.000328754
0.000309685
0.000289313
0.000268235
0.000246631
0.000225333
0.00020438
0.00018345
0.000164871
0.000145392
0.000128202
0.000118083
0.000105371
6.69441e-05
8.54556e-06
2.56771e-05
3.75482e-05
4.71025e-05
5.50788e-05
6.18821e-05
6.93665e-05
7.93992e-05
9.01988e-05
0.000101483
0.000114117
0.000128049
0.000142714
0.000157755
0.000173543
0.000189667
0.000206827
0.000224858
0.000242941
0.000260842
0.000278459
0.00029547
0.000311677
0.000328216
0.000343782
0.000358159
0.000369609
0.00037836
0.000383868
0.000386319
0.000385884
0.000382392
0.000376224
0.000366725
0.000354093
0.000338888
0.000321659
0.000302821
0.000282701
0.000262141
0.000240909
0.000220241
0.000199663
0.000179392
0.000161254
0.000142348
0.000125756
0.000116004
0.000103898
6.55927e-05
1.75426e-05
3.94881e-05
4.91189e-05
5.4557e-05
6.00373e-05
6.81863e-05
7.70275e-05
8.65465e-05
9.7062e-05
0.000108213
0.000121035
0.000134691
0.000149201
0.000164322
0.00017987
0.000195569
0.000212575
0.000230061
0.000247597
0.000264869
0.000281632
0.000297738
0.000312761
0.000328094
0.000342397
0.000355112
0.000365532
0.000372879
0.000377203
0.000378689
0.000377116
0.000372818
0.000366095
0.000356409
0.000343541
0.00032835
0.000311292
0.000292723
0.000273138
0.000253142
0.000232633
0.000212678
0.000192853
0.000173467
0.000156137
0.000137969
0.000122032
0.000112769
0.000101467
6.35979e-05
5.39159e-05
6.94136e-05
6.29624e-05
6.53821e-05
6.9855e-05
7.58916e-05
8.38676e-05
9.31242e-05
0.000103677
0.000114956
0.000128112
0.000141974
0.000156421
0.000171248
0.000186485
0.000201956
0.000218683
0.000235671
0.000252356
0.000268667
0.000284215
0.000299004
0.000312794
0.000326306
0.000339145
0.000350408
0.000359709
0.000365492
0.000368299
0.000368241
0.000365558
0.000360419
0.000352827
0.000343094
0.000330103
0.00031491
0.000298008
0.00027991
0.000260973
0.000241681
0.000222091
0.000202978
0.000184172
0.000165868
0.000149488
0.000132146
0.00011742
0.000108413
9.82244e-05
6.09963e-05
0.000199356
9.71168e-05
8.2156e-05
8.1574e-05
8.5713e-05
9.2039e-05
0.000100048
0.000109278
0.000118757
0.000128525
0.000139605
0.000151092
0.000162779
0.000177517
0.000192692
0.000207811
0.000224194
0.000240223
0.000255856
0.000270947
0.000285022
0.000298205
0.00031037
0.000322156
0.000333098
0.000342626
0.000350421
0.000355863
0.000356957
0.000355537
0.000351389
0.000345002
0.000336618
0.000326406
0.000314086
0.000298882
0.00028237
0.000264783
0.000246616
0.000228184
0.000209584
0.000191634
0.000173941
0.000156932
0.000141441
0.000125215
0.000111751
0.000103329
9.42184e-05
5.79939e-05
0.000206702
0.000130074
0.000104348
9.9297e-05
0.000101037
0.000107084
0.000114907
0.000123671
0.000132987
0.000142909
0.000153682
0.000164596
0.000175439
0.000186193
0.000197249
0.000212084
0.00022755
0.000242485
0.000256773
0.000270321
0.000282755
0.000294327
0.000304941
0.000314594
0.000323557
0.000331161
0.000337236
0.000341718
0.000343047
0.000339819
0.000334397
0.000327024
0.000317868
0.00030711
0.000295023
0.00028082
0.000264686
0.000247782
0.000230364
0.000212963
0.000195564
0.000178923
0.000162462
0.000146609
0.000132312
0.000117346
0.00010527
9.73401e-05
8.9217e-05
5.45181e-05
7.54796e-05
0.000125208
0.000107336
0.000105803
0.000108857
0.000116065
0.000124752
0.000133961
0.000143424
0.00015354
0.000163808
0.000174011
0.000184055
0.000193809
0.000203238
0.000212922
0.000227209
0.000240809
0.000253604
0.000265494
0.000276454
0.000286387
0.000295272
0.00030313
0.0003102
0.000315782
0.000320036
0.000322891
0.000324291
0.000321372
0.000314662
0.000306322
0.000296571
0.00028554
0.000273413
0.000260358
0.000245267
0.000229126
0.000212791
0.000196597
0.000180537
0.000165029
0.000149707
0.000135433
0.000122293
0.000108721
9.78712e-05
9.08855e-05
8.33428e-05
5.0834e-05
1.11079e-05
8.81855e-05
8.94381e-05
9.69581e-05
0.000106261
0.000115516
0.000126131
0.000136548
0.000146838
0.000157117
0.00016716
0.000176931
0.000186408
0.000195467
0.000204131
0.000213027
0.000222856
0.000234952
0.000246147
0.000256444
0.000265701
0.000273953
0.000281242
0.000287417
0.000292572
0.000296357
0.000298964
0.000300262
0.000300429
0.000299322
0.000292081
0.000283136
0.000273007
0.000261887
0.000249928
0.000237303
0.000224144
0.000209423
0.000194233
0.000179156
0.000164259
0.000150255
0.00013647
0.000123645
0.000111763
9.94922e-05
9.02363e-05
8.37204e-05
7.70143e-05
4.72988e-05
1.51932e-06
4.06897e-05
5.66736e-05
7.45317e-05
9.0106e-05
0.000104171
0.000117092
0.000129533
0.000141466
0.000153259
0.000164557
0.000175212
0.000185227
0.000194619
0.000203149
0.000210281
0.000217182
0.000226603
0.000235654
0.00024389
0.000251241
0.000257585
0.00026301
0.00026746
0.000270788
0.000273048
0.000274282
0.000274407
0.000273554
0.000271712
0.000266694
0.000257465
0.000247357
0.000236542
0.000225114
0.000213206
0.000200884
0.000188292
0.000174649
0.000160997
0.000147648
0.000135058
0.0001227
0.000111267
0.00010074
8.9826e-05
8.17326e-05
7.61396e-05
6.99786e-05
4.38495e-05
3.41716e-07
1.12402e-05
2.88216e-05
4.58529e-05
6.43401e-05
8.15887e-05
9.74886e-05
0.000112208
0.000124336
0.000136279
0.00014822
0.000159829
0.000170679
0.000180842
0.000189978
0.000196793
0.000203143
0.000210836
0.00021803
0.000224495
0.000230226
0.000235084
0.000239256
0.000242594
0.000244649
0.000245657
0.000245768
0.00024506
0.000243548
0.000241275
0.000238009
0.000228994
0.000219322
0.000209104
0.000198496
0.000187569
0.000176399
0.000165054
0.000153831
0.000142007
0.000130172
0.00011914
0.00010837
9.8392e-05
8.89496e-05
7.9626e-05
7.30796e-05
6.81132e-05
6.26077e-05
4.01698e-05
4.91605e-07
4.16963e-06
1.10745e-05
2.19666e-05
3.64471e-05
5.22602e-05
6.90221e-05
8.31551e-05
9.64886e-05
0.000109217
0.000121013
0.000132257
0.000142824
0.000152728
0.000161138
0.000168622
0.000176321
0.000183719
0.000190127
0.000195814
0.000200777
0.000204974
0.000208514
0.000211348
0.000212773
0.000212935
0.000212376
0.000211168
0.000209332
0.000206962
0.000203999
0.000196296
0.00018759
0.000178538
0.000169174
0.000159614
0.000149854
0.000140187
0.000130473
0.000120907
0.000111284
0.000101697
9.26167e-05
8.43261e-05
7.64046e-05
6.85727e-05
6.33723e-05
5.92094e-05
5.48553e-05
3.6113e-05
4.08414e-07
2.08004e-06
4.84958e-06
8.79405e-06
1.50206e-05
2.54152e-05
3.68991e-05
4.92191e-05
6.16384e-05
7.35482e-05
8.51113e-05
9.64776e-05
0.000107179
0.00011771
0.000125749
0.000133086
0.000139991
0.000146388
0.00015221
0.000157511
0.000162269
0.00016637
0.000169886
0.000172806
0.000174397
0.000174218
0.000173529
0.000172364
0.000170691
0.000168691
0.00016607
0.00015921
0.000152017
0.000144649
0.000137013
0.000129197
0.000121276
0.000113411
0.000105507
9.78295e-05
9.01999e-05
8.28734e-05
7.56067e-05
6.90093e-05
6.26682e-05
5.65801e-05
5.26105e-05
4.9481e-05
4.6714e-05
3.15742e-05
2.89207e-07
1.18995e-06
2.51618e-06
4.18565e-06
6.41731e-06
9.37339e-06
1.35567e-05
1.9959e-05
2.88766e-05
3.79238e-05
4.76924e-05
5.76852e-05
6.74944e-05
7.55082e-05
8.30237e-05
9.00007e-05
9.66611e-05
0.000102778
0.000108495
0.000113727
0.000118492
0.000122616
0.000126248
0.000129331
0.000131109
0.000131284
0.000131104
0.000130547
0.00012958
0.000128291
0.000124385
0.000119517
0.000114378
0.000109088
0.000103507
9.78113e-05
9.20074e-05
8.61306e-05
8.03167e-05
7.4543e-05
6.88607e-05
6.34106e-05
5.80745e-05
5.31672e-05
4.84242e-05
4.41882e-05
4.1851e-05
3.99253e-05
3.82948e-05
2.65785e-05
1.95266e-07
7.31696e-07
1.43778e-06
2.2889e-06
3.23957e-06
4.30914e-06
5.55042e-06
7.10412e-06
9.20038e-06
1.23219e-05
1.69553e-05
2.31664e-05
3.01889e-05
3.61975e-05
4.22213e-05
4.80422e-05
5.36725e-05
5.90844e-05
6.4256e-05
6.90882e-05
7.36497e-05
7.77726e-05
8.15169e-05
8.48441e-05
8.66499e-05
8.77104e-05
8.84992e-05
8.88864e-05
8.75552e-05
8.54692e-05
8.31033e-05
8.04938e-05
7.7597e-05
7.44826e-05
7.10447e-05
6.75274e-05
6.38474e-05
6.00299e-05
5.62339e-05
5.24736e-05
4.87307e-05
4.50713e-05
4.15765e-05
3.82957e-05
3.53004e-05
3.28603e-05
3.16274e-05
3.06726e-05
3.00067e-05
2.13093e-05
1.30497e-07
4.61719e-07
8.63397e-07
1.31922e-06
1.81065e-06
2.31956e-06
2.80872e-06
3.30908e-06
3.8261e-06
4.39496e-06
5.18752e-06
6.43825e-06
8.12437e-06
1.03132e-05
1.30286e-05
1.62202e-05
1.97668e-05
2.35211e-05
2.73951e-05
3.10936e-05
3.46716e-05
3.79606e-05
4.09035e-05
4.32097e-05
4.50698e-05
4.64586e-05
4.73709e-05
4.79137e-05
4.80812e-05
4.78684e-05
4.74301e-05
4.66742e-05
4.56297e-05
4.43849e-05
4.28574e-05
4.11728e-05
3.93022e-05
3.73397e-05
3.53043e-05
3.31982e-05
3.10819e-05
2.90135e-05
2.70973e-05
2.5306e-05
2.38143e-05
2.27627e-05
2.23616e-05
2.23733e-05
2.20231e-05
1.61012e-05
8.57128e-08
2.92999e-07
5.32835e-07
7.94998e-07
1.06645e-06
1.33385e-06
1.58497e-06
1.80352e-06
1.97466e-06
2.10212e-06
2.30016e-06
2.55197e-06
2.82954e-06
3.15054e-06
3.55575e-06
4.07538e-06
4.75753e-06
5.64213e-06
6.72409e-06
7.9792e-06
9.46621e-06
1.12618e-05
1.30233e-05
1.47097e-05
1.62629e-05
1.76662e-05
1.88638e-05
1.98571e-05
2.06202e-05
2.1226e-05
2.16634e-05
2.18518e-05
2.19135e-05
2.17635e-05
2.14647e-05
2.10275e-05
2.04313e-05
1.97377e-05
1.89617e-05
1.81263e-05
1.72757e-05
1.64251e-05
1.56541e-05
1.49742e-05
1.45514e-05
1.43605e-05
1.46352e-05
1.53384e-05
1.51181e-05
1.11732e-05
5.49449e-08
1.84068e-07
3.29615e-07
4.85354e-07
6.43255e-07
7.94477e-07
9.29992e-07
1.04109e-06
1.11924e-06
1.1808e-06
1.2635e-06
1.32714e-06
1.36956e-06
1.39149e-06
1.40091e-06
1.38484e-06
1.36699e-06
1.33288e-06
1.49296e-06
1.77933e-06
2.13188e-06
2.55523e-06
3.03655e-06
3.57212e-06
4.1541e-06
4.74815e-06
5.33336e-06
5.9135e-06
6.42985e-06
6.91085e-06
7.35165e-06
7.71037e-06
7.99789e-06
8.2177e-06
8.36693e-06
8.43291e-06
8.44531e-06
8.4023e-06
8.29933e-06
8.15952e-06
8.01528e-06
7.88651e-06
7.82407e-06
7.83241e-06
7.99053e-06
8.3038e-06
8.97591e-06
9.70924e-06
9.49703e-06
6.94998e-06
3.40364e-08
1.1276e-07
2.00345e-07
2.93074e-07
3.86162e-07
4.74082e-07
5.50898e-07
6.10556e-07
6.56388e-07
7.11385e-07
7.51114e-07
7.7269e-07
7.72735e-07
7.50195e-07
7.04265e-07
6.3205e-07
5.30619e-07
5.09789e-07
5.46314e-07
5.82455e-07
6.31647e-07
6.81069e-07
7.43623e-07
8.08315e-07
8.91701e-07
9.86015e-07
1.08939e-06
1.20436e-06
1.32518e-06
1.45571e-06
1.59497e-06
1.74556e-06
1.89058e-06
2.02788e-06
2.17786e-06
2.31479e-06
2.44507e-06
2.56388e-06
2.6713e-06
2.78903e-06
2.91556e-06
3.06464e-06
3.26635e-06
3.54808e-06
3.91663e-06
4.38055e-06
5.03597e-06
5.5375e-06
5.34798e-06
3.72013e-06
2.00571e-08
6.61334e-08
1.17163e-07
1.70984e-07
2.24749e-07
2.75039e-07
3.18024e-07
3.62092e-07
4.02412e-07
4.33637e-07
4.53558e-07
4.60026e-07
4.5109e-07
4.24845e-07
3.79418e-07
3.13564e-07
2.63233e-07
2.67105e-07
2.67819e-07
2.65171e-07
2.58653e-07
2.52246e-07
2.41933e-07
2.26088e-07
2.07398e-07
1.86045e-07
1.5852e-07
1.32459e-07
1.15069e-07
1.38618e-07
1.64273e-07
1.9966e-07
2.3731e-07
2.83695e-07
3.31787e-07
3.8698e-07
4.41884e-07
5.09602e-07
5.75823e-07
6.43935e-07
7.15789e-07
8.88569e-07
1.11343e-06
1.39727e-06
1.73963e-06
2.12429e-06
2.554e-06
2.77491e-06
2.64111e-06
1.65554e-06
1.09364e-08
3.61012e-08
6.40223e-08
9.34523e-08
1.24622e-07
1.56744e-07
1.87689e-07
2.15821e-07
2.39406e-07
2.56721e-07
2.66083e-07
2.65838e-07
2.54441e-07
2.30412e-07
1.92303e-07
1.54465e-07
1.53891e-07
1.50468e-07
1.43943e-07
1.3505e-07
1.22216e-07
1.04967e-07
8.29002e-08
5.56402e-08
2.3405e-08
2.4963e-08
2.71926e-08
2.95915e-08
3.23161e-08
3.70987e-08
4.30466e-08
5.00806e-08
6.04807e-08
7.21916e-08
8.6745e-08
1.04401e-07
1.23457e-07
1.47846e-07
1.74238e-07
2.01545e-07
2.3313e-07
2.66088e-07
2.98964e-07
4.77194e-07
7.02345e-07
9.32866e-07
1.12081e-06
1.21728e-06
1.08413e-06
5.68283e-07
5.60296e-09
1.88289e-08
3.40685e-08
5.09514e-08
6.88559e-08
8.69496e-08
1.04236e-07
1.19599e-07
1.31851e-07
1.39771e-07
1.4213e-07
1.37727e-07
1.25369e-07
1.03901e-07
9.0884e-08
9.05178e-08
8.7985e-08
8.30439e-08
7.54256e-08
6.4834e-08
5.09047e-08
3.32422e-08
1.14113e-08
1.05713e-08
1.05579e-08
1.0449e-08
1.03091e-08
1.02165e-08
1.02751e-08
1.09696e-08
1.24408e-08
1.45467e-08
1.73505e-08
2.13835e-08
2.66607e-08
3.28416e-08
3.9912e-08
4.87491e-08
5.87735e-08
6.94758e-08
8.07384e-08
9.20881e-08
1.02841e-07
1.28031e-07
2.45613e-07
3.5226e-07
4.42245e-07
4.47731e-07
3.32952e-07
1.60368e-07
2.44133e-09
8.59566e-09
1.59688e-08
2.42606e-08
3.30184e-08
4.16723e-08
4.95699e-08
5.59922e-08
6.0171e-08
6.1299e-08
5.8536e-08
5.10458e-08
4.72031e-08
4.83563e-08
4.82264e-08
4.6626e-08
4.33547e-08
3.81853e-08
3.08615e-08
2.10988e-08
8.60324e-09
5.54999e-09
5.2169e-09
4.78423e-09
4.26239e-09
3.67413e-09
3.09287e-09
2.6615e-09
2.31081e-09
2.15992e-09
2.35103e-09
2.95094e-09
3.97249e-09
5.55438e-09
7.74745e-09
1.04627e-08
1.36604e-08
1.72562e-08
2.11389e-08
2.51567e-08
2.91309e-08
3.26552e-08
3.5328e-08
3.65315e-08
7.85144e-08
1.257e-07
1.4068e-07
1.22614e-07
8.05029e-08
3.81094e-08
5.80775e-10
2.49967e-09
5.06208e-09
7.79302e-09
1.03566e-08
1.24043e-08
1.3589e-08
1.35238e-08
1.44762e-08
1.62132e-08
1.76013e-08
1.85157e-08
1.88275e-08
1.84098e-08
1.71296e-08
1.48287e-08
1.13215e-08
6.41677e-09
2.75576e-09
2.62719e-09
2.42597e-09
2.15738e-09
1.79938e-09
1.36521e-09
8.6822e-10
3.01096e-10
1.23679e-11
1.30757e-11
1.41618e-11
1.57071e-11
1.81543e-11
2.3594e-11
2.96539e-11
3.62326e-11
1.02155e-09
2.31137e-09
3.81608e-09
5.467e-09
7.1194e-09
8.58277e-09
9.84112e-09
1.06923e-08
1.10877e-08
1.05864e-08
1.11089e-08
2.3992e-08
2.57107e-08
2.05041e-08
1.22602e-08
5.62305e-09
1.24082e-11
1.62813e-10
3.4206e-10
4.44565e-10
4.81643e-10
4.22423e-10
2.53438e-10
2.01839e-10
2.39129e-10
2.73315e-10
3.01817e-10
3.21853e-10
3.30682e-10
3.264e-10
3.08028e-10
2.69533e-10
2.04939e-10
1.10434e-10
2.70278e-12
2.68169e-12
2.61867e-12
2.51249e-12
2.36722e-12
2.19702e-12
2.02347e-12
1.8755e-12
1.79363e-12
1.81426e-12
1.95585e-12
2.23722e-12
2.67496e-12
3.25763e-12
3.9602e-12
4.75685e-12
5.61079e-12
6.47124e-12
7.27787e-12
7.96505e-12
8.45644e-12
8.68306e-12
8.59647e-12
3.48362e-10
6.47019e-10
7.86993e-10
7.85656e-10
6.76314e-10
4.94793e-10
3.18806e-10
1.67294e-10
9.64875e-11
)
;

boundaryField
{
    AXIS
    {
        type            empty;
    }
    OUTLET
    {
        type            calculated;
        value           nonuniform List<scalar> 
25
(
6.75337e-05
6.69441e-05
6.55927e-05
6.35979e-05
6.09963e-05
5.79939e-05
5.45181e-05
5.0834e-05
4.72988e-05
4.38495e-05
4.01698e-05
3.6113e-05
3.15742e-05
2.65785e-05
2.13093e-05
1.61012e-05
1.11732e-05
6.94998e-06
3.72013e-06
1.65554e-06
5.68283e-07
1.60368e-07
3.81094e-08
5.62305e-09
9.64875e-11
)
;
    }
    COFLOW
    {
        type            calculated;
        value           uniform 0;
    }
    PILOT
    {
        type            calculated;
        value           uniform 9.75881e-18;
    }
    FUEL
    {
        type            calculated;
        value           uniform 0;
    }
    WALL
    {
        type            calculated;
        value           nonuniform List<scalar> 
50
(
1.24082e-11
1.62813e-10
3.4206e-10
4.44565e-10
4.81643e-10
4.22423e-10
2.53438e-10
2.01839e-10
2.39129e-10
2.73315e-10
3.01817e-10
3.21853e-10
3.30682e-10
3.264e-10
3.08028e-10
2.69533e-10
2.04939e-10
1.10434e-10
2.70278e-12
2.68169e-12
2.61867e-12
2.51249e-12
2.36722e-12
2.19702e-12
2.02347e-12
1.8755e-12
1.79363e-12
1.81426e-12
1.95585e-12
2.23722e-12
2.67496e-12
3.25763e-12
3.9602e-12
4.75685e-12
5.61079e-12
6.47124e-12
7.27787e-12
7.96505e-12
8.45644e-12
8.68306e-12
8.59647e-12
3.48362e-10
6.47019e-10
7.86993e-10
7.85656e-10
6.76314e-10
4.94793e-10
3.18806e-10
1.67294e-10
9.64875e-11
)
;
    }
    front
    {
        type            wedge;
    }
    back
    {
        type            wedge;
    }
}


// ************************************************************************* //
