/*--------------------------------*- C++ -*----------------------------------*\
| =========                 |                                                 |
| \\      /  F ield         | OpenFOAM: The Open Source CFD Toolbox           |
|  \\    /   O peration     | Version:  2.4.x                                 |
|   \\  /    A nd           | Web:      www.OpenFOAM.org                      |
|    \\/     M anipulation  |                                                 |
\*---------------------------------------------------------------------------*/
FoamFile
{
    version     2.0;
    format      ascii;
    class       volScalarField;
    location    "0.1";
    object      CH2CHO;
}
// * * * * * * * * * * * * * * * * * * * * * * * * * * * * * * * * * * * * * //

dimensions      [0 0 0 0 0 0 0];

internalField   nonuniform List<scalar> 
1250
(
3.10985e-10
1.12022e-09
1.92436e-09
2.69428e-09
3.50623e-09
4.39579e-09
5.38956e-09
6.49529e-09
7.72483e-09
9.17764e-09
1.07542e-08
1.24426e-08
1.42331e-08
1.60621e-08
1.7896e-08
1.97629e-08
2.16391e-08
2.35949e-08
2.55434e-08
2.74865e-08
2.93698e-08
3.12083e-08
3.29556e-08
3.48582e-08
3.66631e-08
3.82073e-08
3.95006e-08
4.04188e-08
4.10605e-08
4.13434e-08
4.12969e-08
4.09344e-08
4.02787e-08
3.93259e-08
3.80226e-08
3.63699e-08
3.44513e-08
3.23258e-08
3.00294e-08
2.76473e-08
2.52113e-08
2.28019e-08
2.04675e-08
1.81123e-08
1.60734e-08
1.39571e-08
1.2061e-08
1.1057e-08
9.98399e-09
6.41403e-09
3.67416e-10
1.26948e-09
2.09685e-09
2.89051e-09
3.73404e-09
4.66491e-09
5.7054e-09
6.84917e-09
8.21797e-09
9.71859e-09
1.13283e-08
1.30438e-08
1.48482e-08
1.6669e-08
1.8506e-08
2.0345e-08
2.22075e-08
2.41382e-08
2.60675e-08
2.79698e-08
2.9828e-08
3.16234e-08
3.33248e-08
3.51817e-08
3.69498e-08
3.84604e-08
3.96655e-08
4.05457e-08
4.11206e-08
4.13496e-08
4.12546e-08
4.08416e-08
4.01312e-08
3.91563e-08
3.7826e-08
3.61594e-08
3.42356e-08
3.21058e-08
2.98114e-08
2.74423e-08
2.50173e-08
2.26314e-08
2.03075e-08
1.79784e-08
1.5956e-08
1.38618e-08
1.19771e-08
1.09856e-08
9.93853e-09
6.37075e-09
5.48546e-10
1.69225e-09
2.56902e-09
3.42773e-09
4.36055e-09
5.38704e-09
6.57569e-09
7.97274e-09
9.48155e-09
1.10544e-08
1.27301e-08
1.44831e-08
1.62821e-08
1.80886e-08
1.98946e-08
2.16734e-08
2.34893e-08
2.5362e-08
2.72228e-08
2.90481e-08
3.08254e-08
3.25249e-08
3.41249e-08
3.58661e-08
3.7566e-08
3.89889e-08
4.00439e-08
4.08232e-08
4.12653e-08
4.13772e-08
4.11845e-08
4.06546e-08
3.98378e-08
3.87995e-08
3.74045e-08
3.57051e-08
3.37635e-08
3.16229e-08
2.9329e-08
2.69944e-08
2.45876e-08
2.22475e-08
1.99473e-08
1.76734e-08
1.56878e-08
1.36422e-08
1.18037e-08
1.08441e-08
9.85067e-09
6.26941e-09
1.11902e-09
2.65455e-09
3.61018e-09
4.59582e-09
5.77649e-09
7.17945e-09
8.67899e-09
1.02538e-08
1.1859e-08
1.34874e-08
1.52015e-08
1.69265e-08
1.86658e-08
2.04038e-08
2.21061e-08
2.37566e-08
2.54828e-08
2.72414e-08
2.89796e-08
3.06749e-08
3.23033e-08
3.38462e-08
3.52711e-08
3.6847e-08
3.83559e-08
3.9703e-08
4.05995e-08
4.11751e-08
4.14284e-08
4.13828e-08
4.10008e-08
4.03256e-08
3.93988e-08
3.82233e-08
3.67599e-08
3.50175e-08
3.30426e-08
3.08878e-08
2.86175e-08
2.63119e-08
2.39492e-08
2.16585e-08
1.94161e-08
1.72188e-08
1.53031e-08
1.33113e-08
1.153e-08
1.06134e-08
9.69131e-09
6.11724e-09
3.49099e-09
5.28319e-09
6.28089e-09
7.8959e-09
9.53955e-09
1.11775e-08
1.27411e-08
1.43624e-08
1.59141e-08
1.74312e-08
1.90184e-08
2.05965e-08
2.21464e-08
2.36512e-08
2.51311e-08
2.65877e-08
2.81533e-08
2.97361e-08
3.12745e-08
3.27611e-08
3.41589e-08
3.54735e-08
3.66755e-08
3.79487e-08
3.92232e-08
4.03434e-08
4.12291e-08
4.15565e-08
4.15623e-08
4.12594e-08
4.06806e-08
3.98469e-08
3.87528e-08
3.74421e-08
3.5898e-08
3.4084e-08
3.20687e-08
2.99203e-08
2.76785e-08
2.54055e-08
2.31023e-08
2.08752e-08
1.87187e-08
1.66178e-08
1.47799e-08
1.28513e-08
1.11879e-08
1.02911e-08
9.47576e-09
5.9133e-09
2.04355e-08
1.52492e-08
1.59892e-08
1.70131e-08
1.81739e-08
1.9387e-08
2.04305e-08
2.15189e-08
2.24746e-08
2.33797e-08
2.44205e-08
2.55057e-08
2.65857e-08
2.77823e-08
2.89514e-08
3.00904e-08
3.14189e-08
3.27088e-08
3.39573e-08
3.51503e-08
3.62246e-08
3.72066e-08
3.80911e-08
3.90579e-08
4.00301e-08
4.08606e-08
4.14949e-08
4.18226e-08
4.15396e-08
4.09996e-08
4.01661e-08
3.91077e-08
3.78503e-08
3.64049e-08
3.47687e-08
3.2895e-08
3.08703e-08
2.87239e-08
2.65087e-08
2.42828e-08
2.20547e-08
1.99294e-08
1.78692e-08
1.58787e-08
1.41102e-08
1.22867e-08
1.07539e-08
9.9008e-09
9.20287e-09
5.6762e-09
3.53411e-08
3.57901e-08
3.27914e-08
3.10616e-08
3.02845e-08
3.05022e-08
3.03619e-08
3.0374e-08
3.04791e-08
3.07543e-08
3.12258e-08
3.17288e-08
3.22253e-08
3.27305e-08
3.32526e-08
3.40059e-08
3.49579e-08
3.58651e-08
3.67236e-08
3.75254e-08
3.8212e-08
3.88386e-08
3.93972e-08
3.99519e-08
4.05706e-08
4.10525e-08
4.13667e-08
4.15048e-08
4.12376e-08
4.03953e-08
3.93299e-08
3.80631e-08
3.66223e-08
3.50406e-08
3.33446e-08
3.14764e-08
2.94228e-08
2.72868e-08
2.5109e-08
2.29627e-08
2.08397e-08
1.88305e-08
1.68663e-08
1.49765e-08
1.33267e-08
1.16302e-08
1.02292e-08
9.4205e-09
8.8256e-09
5.40582e-09
9.76032e-09
3.45595e-08
3.94419e-08
4.01762e-08
3.97391e-08
3.984e-08
3.93914e-08
3.88341e-08
3.82828e-08
3.80228e-08
3.78379e-08
3.76859e-08
3.75679e-08
3.74701e-08
3.73881e-08
3.75178e-08
3.80695e-08
3.85855e-08
3.90483e-08
3.94475e-08
3.97826e-08
4.00451e-08
4.02354e-08
4.04012e-08
4.06707e-08
4.07801e-08
4.07509e-08
4.05692e-08
4.02182e-08
3.93387e-08
3.80336e-08
3.65798e-08
3.50089e-08
3.33345e-08
3.15656e-08
2.97317e-08
2.77223e-08
2.56263e-08
2.3535e-08
2.14901e-08
1.94766e-08
1.75566e-08
1.56978e-08
1.39752e-08
1.24457e-08
1.08713e-08
9.60472e-09
8.90424e-09
8.3425e-09
5.09044e-09
1.06066e-09
1.83483e-08
2.84422e-08
3.59572e-08
4.00471e-08
4.21542e-08
4.31849e-08
4.3249e-08
4.29974e-08
4.27466e-08
4.23497e-08
4.18935e-08
4.14223e-08
4.09422e-08
4.04852e-08
4.03526e-08
4.04167e-08
4.05496e-08
4.06283e-08
4.06568e-08
4.06146e-08
4.05203e-08
4.03779e-08
4.01649e-08
4.00734e-08
3.9834e-08
3.94789e-08
3.8976e-08
3.83669e-08
3.76221e-08
3.61961e-08
3.46171e-08
3.294e-08
3.11988e-08
2.94111e-08
2.76001e-08
2.57785e-08
2.38018e-08
2.17884e-08
1.98255e-08
1.79181e-08
1.61569e-08
1.44591e-08
1.28825e-08
1.14734e-08
1.00446e-08
8.95872e-09
8.29338e-09
7.80554e-09
4.74646e-09
1.01752e-10
5.35357e-09
1.21123e-08
2.14586e-08
2.95978e-08
3.53965e-08
3.91951e-08
4.13139e-08
4.28572e-08
4.372e-08
4.41264e-08
4.40763e-08
4.37962e-08
4.33878e-08
4.28531e-08
4.23197e-08
4.18569e-08
4.15276e-08
4.12042e-08
4.08524e-08
4.04618e-08
4.00234e-08
3.9544e-08
3.90156e-08
3.85657e-08
3.80444e-08
3.74299e-08
3.66925e-08
3.58691e-08
3.49569e-08
3.37273e-08
3.20893e-08
3.04043e-08
2.86858e-08
2.69485e-08
2.51899e-08
2.34327e-08
2.16933e-08
1.98428e-08
1.80286e-08
1.62851e-08
1.46653e-08
1.31133e-08
1.16983e-08
1.04437e-08
9.15108e-09
8.18918e-09
7.61787e-09
7.16997e-09
4.41583e-09
1.98846e-11
9.95678e-10
3.50415e-09
8.38767e-09
1.55225e-08
2.25799e-08
2.85409e-08
3.2937e-08
3.6073e-08
3.81059e-08
3.98686e-08
4.08127e-08
4.13621e-08
4.15885e-08
4.15371e-08
4.11893e-08
4.07459e-08
4.02881e-08
3.97725e-08
3.92211e-08
3.86415e-08
3.80204e-08
3.73834e-08
3.67116e-08
3.60272e-08
3.52937e-08
3.44808e-08
3.36041e-08
3.26653e-08
3.16619e-08
3.05758e-08
2.8966e-08
2.73331e-08
2.56888e-08
2.4047e-08
2.24173e-08
2.07985e-08
1.92069e-08
1.76638e-08
1.60649e-08
1.44942e-08
1.30602e-08
1.16897e-08
1.04359e-08
9.28884e-09
8.16386e-09
7.38766e-09
6.88681e-09
6.439e-09
4.04602e-09
3.46486e-11
3.22352e-10
9.574e-10
2.38864e-09
5.32267e-09
9.98447e-09
1.54932e-08
2.02028e-08
2.43999e-08
2.77729e-08
3.04638e-08
3.23742e-08
3.38862e-08
3.49208e-08
3.54459e-08
3.56985e-08
3.57715e-08
3.56654e-08
3.54011e-08
3.50327e-08
3.45818e-08
3.40543e-08
3.34824e-08
3.28612e-08
3.21289e-08
3.1304e-08
3.04216e-08
2.94926e-08
2.85214e-08
2.75198e-08
2.64802e-08
2.50521e-08
2.35727e-08
2.21004e-08
2.06404e-08
1.9205e-08
1.77875e-08
1.64138e-08
1.50728e-08
1.37812e-08
1.24997e-08
1.12304e-08
1.00495e-08
8.99394e-09
8.02655e-09
7.07244e-09
6.45151e-09
6.04737e-09
5.62844e-09
3.63408e-09
2.99983e-11
1.5667e-10
3.75861e-10
7.3022e-10
1.43799e-09
2.95054e-09
5.29292e-09
8.41039e-09
1.18627e-08
1.51552e-08
1.81841e-08
2.08173e-08
2.30298e-08
2.49947e-08
2.61145e-08
2.69419e-08
2.74985e-08
2.78349e-08
2.80144e-08
2.80539e-08
2.79617e-08
2.77517e-08
2.74657e-08
2.71031e-08
2.65671e-08
2.58142e-08
2.50218e-08
2.41968e-08
2.33371e-08
2.2468e-08
2.156e-08
2.03459e-08
1.91312e-08
1.79305e-08
1.67344e-08
1.5552e-08
1.43909e-08
1.32683e-08
1.21693e-08
1.1128e-08
1.01168e-08
9.16299e-09
8.22503e-09
7.37639e-09
6.59773e-09
5.85824e-09
5.39056e-09
5.04874e-09
4.77823e-09
3.16759e-09
2.14988e-11
8.91729e-11
1.90269e-10
3.22184e-10
5.13883e-10
8.0631e-10
1.30556e-09
2.20354e-09
3.64431e-09
5.45376e-09
7.549e-09
9.73072e-09
1.18346e-08
1.34994e-08
1.49281e-08
1.61486e-08
1.7202e-08
1.80095e-08
1.87045e-08
1.9231e-08
1.9583e-08
1.97853e-08
1.9872e-08
1.98446e-08
1.95911e-08
1.90889e-08
1.85648e-08
1.80068e-08
1.74067e-08
1.67805e-08
1.5983e-08
1.51267e-08
1.42604e-08
1.33996e-08
1.25264e-08
1.16629e-08
1.08096e-08
9.97081e-09
9.16881e-09
8.39377e-09
7.64594e-09
6.94187e-09
6.25963e-09
5.63473e-09
5.05197e-09
4.53095e-09
4.24887e-09
4.03876e-09
3.8796e-09
2.65334e-09
1.45548e-11
5.47165e-11
1.08019e-10
1.72967e-10
2.47049e-10
3.33936e-10
4.431e-10
5.97698e-10
8.38733e-10
1.24129e-09
1.88511e-09
2.7793e-09
3.82708e-09
4.88219e-09
5.95435e-09
6.98643e-09
7.96248e-09
8.85599e-09
9.66823e-09
1.03681e-08
1.09741e-08
1.14652e-08
1.18698e-08
1.21633e-08
1.2164e-08
1.20201e-08
1.18426e-08
1.16061e-08
1.12426e-08
1.0821e-08
1.03755e-08
9.91033e-09
9.4215e-09
8.9193e-09
8.39093e-09
7.86615e-09
7.33533e-09
6.80129e-09
6.2809e-09
5.77689e-09
5.28613e-09
4.8163e-09
4.37213e-09
3.96408e-09
3.59737e-09
3.29619e-09
3.14929e-09
3.04543e-09
2.99785e-09
2.10083e-09
9.72092e-12
3.44386e-11
6.45065e-11
9.87287e-11
1.35769e-10
1.74432e-10
2.12357e-10
2.52658e-10
2.97555e-10
3.53066e-10
4.38285e-10
5.77403e-10
7.76111e-10
1.04769e-09
1.39741e-09
1.82015e-09
2.29911e-09
2.81357e-09
3.34692e-09
3.85811e-09
4.3495e-09
4.7965e-09
5.19167e-09
5.46792e-09
5.67454e-09
5.80803e-09
5.86969e-09
5.8725e-09
5.82991e-09
5.7396e-09
5.62341e-09
5.47101e-09
5.28553e-09
5.07902e-09
4.84289e-09
4.59319e-09
4.32708e-09
4.05572e-09
3.78177e-09
3.50589e-09
3.23474e-09
2.97501e-09
2.73673e-09
2.51805e-09
2.33849e-09
2.21037e-09
2.16158e-09
2.16744e-09
2.15511e-09
1.55517e-09
6.36675e-12
2.17729e-11
3.9607e-11
5.9091e-11
7.92277e-11
9.89979e-11
1.17478e-10
1.33497e-10
1.46072e-10
1.55603e-10
1.71719e-10
1.93445e-10
2.19066e-10
2.50851e-10
2.93104e-10
3.4972e-10
4.26307e-10
5.28598e-10
6.57146e-10
8.09398e-10
9.90451e-10
1.20314e-09
1.41332e-09
1.61298e-09
1.79465e-09
1.95494e-09
2.08735e-09
2.19229e-09
2.26731e-09
2.32055e-09
2.35259e-09
2.35478e-09
2.34202e-09
2.30505e-09
2.25121e-09
2.18228e-09
2.09645e-09
2.00113e-09
1.89846e-09
1.79113e-09
1.68428e-09
1.57972e-09
1.48582e-09
1.40374e-09
1.35213e-09
1.32778e-09
1.35396e-09
1.43384e-09
1.43147e-09
1.04253e-09
4.06166e-12
1.3606e-11
2.43538e-11
3.58251e-11
4.73992e-11
5.83901e-11
6.80951e-11
7.58342e-11
8.094e-11
8.48214e-11
9.07095e-11
9.51753e-11
9.80704e-11
9.94649e-11
9.9954e-11
9.85879e-11
9.71363e-11
9.45958e-11
1.08985e-10
1.3515e-10
1.68242e-10
2.08988e-10
2.56566e-10
3.10377e-10
3.69145e-10
4.29824e-10
4.89698e-10
5.48009e-10
5.9971e-10
6.47226e-10
6.89254e-10
7.22235e-10
7.47675e-10
7.65281e-10
7.74923e-10
7.75743e-10
7.70795e-10
7.60432e-10
7.4402e-10
7.24215e-10
7.04455e-10
6.86878e-10
6.76601e-10
6.73759e-10
6.87142e-10
7.17561e-10
7.85756e-10
8.65372e-10
8.57922e-10
6.14005e-10
2.49808e-12
8.27301e-12
1.4685e-11
2.1446e-11
2.81847e-11
3.44713e-11
3.98431e-11
4.38267e-11
4.67225e-11
5.04525e-11
5.30105e-11
5.41738e-11
5.37049e-11
5.14923e-11
4.74318e-11
4.12842e-11
3.27986e-11
3.07459e-11
3.33977e-11
3.61194e-11
3.98514e-11
4.37394e-11
4.86781e-11
5.39239e-11
6.06204e-11
6.82112e-11
7.65341e-11
8.57833e-11
9.55563e-11
1.0597e-10
1.16931e-10
1.28767e-10
1.40219e-10
1.51062e-10
1.62499e-10
1.72707e-10
1.82382e-10
1.91129e-10
1.98967e-10
2.07823e-10
2.17636e-10
2.29723e-10
2.46864e-10
2.71769e-10
3.0525e-10
3.48309e-10
4.11102e-10
4.62633e-10
4.51388e-10
3.01836e-10
1.45663e-12
4.79985e-12
8.49129e-12
1.23621e-11
1.61907e-11
1.9711e-11
2.26247e-11
2.56458e-11
2.83931e-11
3.04413e-11
3.16226e-11
3.17729e-11
3.07417e-11
2.83801e-11
2.45407e-11
1.91238e-11
1.49865e-11
1.52367e-11
1.52951e-11
1.51472e-11
1.47593e-11
1.43702e-11
1.3714e-11
1.26796e-11
1.1407e-11
9.87198e-12
7.86134e-12
5.7686e-12
4.16953e-12
5.25694e-12
6.48885e-12
8.22308e-12
1.01388e-11
1.25885e-11
1.52186e-11
1.83524e-11
2.15564e-11
2.55253e-11
2.9497e-11
3.36778e-11
3.81851e-11
5.12307e-11
6.88883e-11
9.19305e-11
1.20431e-10
1.53313e-10
1.91238e-10
2.12344e-10
2.02284e-10
1.18939e-10
7.81426e-13
2.57687e-12
4.55982e-12
6.63192e-12
8.82035e-12
1.10704e-11
1.32183e-11
1.5142e-11
1.67122e-11
1.77998e-11
1.82785e-11
1.80235e-11
1.69179e-11
1.48488e-11
1.17054e-11
8.63315e-12
8.5807e-12
8.36176e-12
7.96057e-12
7.4276e-12
6.65353e-12
5.60715e-12
4.26115e-12
2.58912e-12
5.98886e-13
6.49712e-13
7.22367e-13
8.0187e-13
8.94249e-13
1.05676e-12
1.2613e-12
1.50894e-12
1.88673e-12
2.32697e-12
2.89489e-12
3.60992e-12
4.41203e-12
5.47278e-12
6.66386e-12
7.94272e-12
9.47976e-12
1.11485e-11
1.28774e-11
2.57823e-11
4.26249e-11
6.03903e-11
7.53166e-11
8.32081e-11
7.3064e-11
3.52612e-11
3.94506e-13
1.32515e-12
2.39536e-12
3.57681e-12
4.82288e-12
6.07153e-12
7.24865e-12
8.27115e-12
9.0508e-12
9.49654e-12
9.51659e-12
9.02104e-12
7.92054e-12
6.12831e-12
5.04445e-12
5.00782e-12
4.8457e-12
4.54388e-12
4.08652e-12
3.4561e-12
2.63108e-12
1.58794e-12
3.00528e-13
2.49735e-13
2.51559e-13
2.51008e-13
2.49619e-13
2.49422e-13
2.5312e-13
2.74405e-13
3.1712e-13
3.77532e-13
4.5866e-13
5.78453e-13
7.39557e-13
9.33457e-13
1.16201e-12
1.45894e-12
1.80796e-12
2.19385e-12
2.61468e-12
3.05507e-12
3.48706e-12
4.96997e-12
1.29273e-11
2.03028e-11
2.65774e-11
2.7035e-11
1.95464e-11
8.98806e-12
1.69619e-13
5.96625e-13
1.10622e-12
1.67558e-12
2.27083e-12
2.84962e-12
3.36341e-12
3.75881e-12
3.97877e-12
3.96329e-12
3.64986e-12
2.97611e-12
2.61125e-12
2.66679e-12
2.6484e-12
2.54528e-12
2.34589e-12
2.03709e-12
1.60408e-12
1.03035e-12
2.98872e-13
1.27238e-13
1.19651e-13
1.09777e-13
9.78593e-14
8.44176e-14
7.11495e-14
6.17215e-14
5.39699e-14
5.08084e-14
5.57747e-14
7.07106e-14
9.62587e-14
1.36668e-13
1.93946e-13
2.66193e-13
3.52942e-13
4.5244e-13
5.62044e-13
6.7764e-13
7.9395e-13
8.98879e-13
9.78596e-13
1.01231e-12
3.66373e-12
6.68383e-12
7.70579e-12
6.73689e-12
4.39333e-12
2.06414e-12
3.92351e-14
1.68323e-13
3.38089e-13
5.14338e-13
6.72146e-13
7.85539e-13
8.28473e-13
7.72182e-13
7.98905e-13
8.92613e-13
9.65994e-13
1.01194e-12
1.02308e-12
9.92162e-13
9.11632e-13
7.72499e-13
5.64161e-13
2.75651e-13
6.25349e-14
5.96182e-14
5.5031e-14
4.89153e-14
4.07708e-14
3.09017e-14
1.96104e-14
6.72396e-15
1.57647e-16
1.66792e-16
1.80832e-16
2.0085e-16
2.32486e-16
3.02254e-16
3.80404e-16
4.65748e-16
2.38139e-14
5.47761e-14
9.13052e-14
1.31738e-13
1.72444e-13
2.08591e-13
2.3939e-13
2.59511e-13
2.6763e-13
2.52565e-13
3.20894e-13
1.13288e-12
1.30196e-12
1.06427e-12
6.41139e-13
2.9492e-13
7.62584e-16
8.97406e-15
1.86583e-14
2.37298e-14
2.48144e-14
2.01431e-14
8.93106e-15
4.53277e-15
5.37422e-15
6.14691e-15
6.79234e-15
7.24725e-15
7.44917e-15
7.35448e-15
6.94054e-15
6.07051e-15
4.60919e-15
2.47094e-15
3.43272e-17
3.40524e-17
3.32443e-17
3.18882e-17
3.0037e-17
2.78715e-17
2.56665e-17
2.37892e-17
2.27536e-17
2.30223e-17
2.48308e-17
2.84217e-17
3.40116e-17
4.14624e-17
5.04625e-17
6.06886e-17
7.16741e-17
8.27673e-17
9.3187e-17
1.02077e-16
1.08437e-16
1.1136e-16
1.10213e-16
7.90811e-15
1.47317e-14
1.78896e-14
1.78071e-14
1.5277e-14
1.11379e-14
7.15628e-15
3.74697e-15
2.15928e-15
)
;

boundaryField
{
    AXIS
    {
        type            empty;
    }
    OUTLET
    {
        type            calculated;
        value           nonuniform List<scalar> 
25
(
6.41403e-09
6.37075e-09
6.26941e-09
6.11724e-09
5.9133e-09
5.6762e-09
5.40582e-09
5.09044e-09
4.74646e-09
4.41583e-09
4.04602e-09
3.63408e-09
3.16759e-09
2.65334e-09
2.10083e-09
1.55517e-09
1.04253e-09
6.14005e-10
3.01836e-10
1.18939e-10
3.52612e-11
8.98806e-12
2.06414e-12
2.9492e-13
2.15928e-15
)
;
    }
    COFLOW
    {
        type            calculated;
        value           uniform 0;
    }
    PILOT
    {
        type            calculated;
        value           uniform 8.83683e-23;
    }
    FUEL
    {
        type            calculated;
        value           uniform 0;
    }
    WALL
    {
        type            calculated;
        value           nonuniform List<scalar> 
50
(
7.62584e-16
8.97406e-15
1.86583e-14
2.37298e-14
2.48144e-14
2.01431e-14
8.93106e-15
4.53277e-15
5.37422e-15
6.14691e-15
6.79234e-15
7.24725e-15
7.44917e-15
7.35448e-15
6.94054e-15
6.07051e-15
4.60919e-15
2.47094e-15
3.43272e-17
3.40524e-17
3.32443e-17
3.18882e-17
3.0037e-17
2.78715e-17
2.56665e-17
2.37892e-17
2.27536e-17
2.30223e-17
2.48308e-17
2.84217e-17
3.40116e-17
4.14624e-17
5.04625e-17
6.06886e-17
7.16741e-17
8.27673e-17
9.3187e-17
1.02077e-16
1.08437e-16
1.1136e-16
1.10213e-16
7.90811e-15
1.47317e-14
1.78896e-14
1.78071e-14
1.5277e-14
1.11379e-14
7.15628e-15
3.74697e-15
2.15928e-15
)
;
    }
    front
    {
        type            wedge;
    }
    back
    {
        type            wedge;
    }
}


// ************************************************************************* //
