/*--------------------------------*- C++ -*----------------------------------*\
| =========                 |                                                 |
| \\      /  F ield         | OpenFOAM: The Open Source CFD Toolbox           |
|  \\    /   O peration     | Version:  2.4.x                                 |
|   \\  /    A nd           | Web:      www.OpenFOAM.org                      |
|    \\/     M anipulation  |                                                 |
\*---------------------------------------------------------------------------*/
FoamFile
{
    version     2.0;
    format      ascii;
    class       volScalarField;
    location    "0.1";
    object      CH2OH;
}
// * * * * * * * * * * * * * * * * * * * * * * * * * * * * * * * * * * * * * //

dimensions      [0 0 0 0 0 0 0];

internalField   nonuniform List<scalar> 
1250
(
1.05212e-10
4.10919e-10
8.1988e-10
1.4104e-09
2.33472e-09
3.70387e-09
5.57338e-09
7.93494e-09
1.06642e-08
1.36396e-08
1.67369e-08
1.95627e-08
2.24359e-08
2.52019e-08
2.79474e-08
3.05749e-08
3.26162e-08
3.403e-08
3.54439e-08
3.68227e-08
3.80624e-08
3.93229e-08
4.07242e-08
4.15899e-08
4.23927e-08
4.29417e-08
4.3544e-08
4.41754e-08
4.49877e-08
4.58905e-08
4.68026e-08
4.76701e-08
4.83698e-08
4.88553e-08
4.94815e-08
5.01602e-08
5.0827e-08
5.15253e-08
5.21903e-08
5.28018e-08
5.32983e-08
5.36773e-08
5.39835e-08
5.3876e-08
5.38342e-08
5.34745e-08
5.2142e-08
5.1543e-08
5.04317e-08
4.12156e-08
1.21286e-10
4.69719e-10
9.29717e-10
1.63255e-09
2.75515e-09
4.39192e-09
6.57416e-09
9.2128e-09
1.21492e-08
1.53146e-08
1.8509e-08
2.14247e-08
2.43006e-08
2.70988e-08
2.98435e-08
3.23756e-08
3.43165e-08
3.56836e-08
3.70274e-08
3.83009e-08
3.94987e-08
4.07416e-08
4.21648e-08
4.30666e-08
4.3781e-08
4.42622e-08
4.47649e-08
4.5382e-08
4.61643e-08
4.702e-08
4.78696e-08
4.86792e-08
4.93793e-08
4.98238e-08
5.03902e-08
5.10032e-08
5.16189e-08
5.22576e-08
5.28596e-08
5.34025e-08
5.38337e-08
5.4144e-08
5.43806e-08
5.42032e-08
5.40992e-08
5.36736e-08
5.22594e-08
5.16042e-08
5.03838e-08
4.09683e-08
1.7149e-10
6.45433e-10
1.29533e-09
2.4167e-09
4.20079e-09
6.6197e-09
9.54711e-09
1.27697e-08
1.62011e-08
1.97303e-08
2.30623e-08
2.60433e-08
2.89292e-08
3.17102e-08
3.42655e-08
3.66329e-08
3.83062e-08
3.94987e-08
4.06437e-08
4.1724e-08
4.28224e-08
4.40617e-08
4.55281e-08
4.62609e-08
4.67933e-08
4.71457e-08
4.74991e-08
4.80656e-08
4.87782e-08
4.95135e-08
5.02328e-08
5.08978e-08
5.15483e-08
5.19299e-08
5.23645e-08
5.28273e-08
5.3322e-08
5.38313e-08
5.42855e-08
5.46837e-08
5.49872e-08
5.51436e-08
5.52313e-08
5.48991e-08
5.46648e-08
5.40801e-08
5.24398e-08
5.16299e-08
5.01681e-08
4.04261e-08
3.24543e-10
1.159e-09
2.63816e-09
5.26929e-09
8.77413e-09
1.26855e-08
1.67502e-08
2.08628e-08
2.47557e-08
2.85357e-08
3.17725e-08
3.45937e-08
3.7195e-08
3.96104e-08
4.18019e-08
4.37761e-08
4.49272e-08
4.5729e-08
4.6511e-08
4.73473e-08
4.83626e-08
4.95821e-08
5.07385e-08
5.10443e-08
5.118e-08
5.15087e-08
5.17974e-08
5.22627e-08
5.27792e-08
5.3297e-08
5.3765e-08
5.42364e-08
5.4703e-08
5.50047e-08
5.52121e-08
5.54782e-08
5.57789e-08
5.60748e-08
5.63096e-08
5.65101e-08
5.65899e-08
5.65166e-08
5.63758e-08
5.58007e-08
5.53521e-08
5.44932e-08
5.26268e-08
5.16073e-08
4.98196e-08
3.95957e-08
1.0428e-09
4.23361e-09
1.01336e-08
1.69803e-08
2.32772e-08
2.88785e-08
3.34031e-08
3.76865e-08
4.1234e-08
4.44328e-08
4.66632e-08
4.86104e-08
5.03248e-08
5.18379e-08
5.31863e-08
5.44148e-08
5.46591e-08
5.48496e-08
5.52272e-08
5.58014e-08
5.64259e-08
5.70258e-08
5.75167e-08
5.72778e-08
5.71149e-08
5.73487e-08
5.77641e-08
5.79272e-08
5.80756e-08
5.82333e-08
5.8427e-08
5.8628e-08
5.87813e-08
5.88215e-08
5.87661e-08
5.87656e-08
5.8781e-08
5.87908e-08
5.87587e-08
5.86864e-08
5.84492e-08
5.80881e-08
5.76604e-08
5.67748e-08
5.60476e-08
5.48417e-08
5.2653e-08
5.13973e-08
4.92078e-08
3.85052e-08
2.89116e-08
4.04085e-08
4.67494e-08
5.10663e-08
5.46378e-08
5.7774e-08
5.99583e-08
6.21227e-08
6.39926e-08
6.56338e-08
6.66208e-08
6.78011e-08
6.90804e-08
6.91801e-08
6.90669e-08
6.8936e-08
6.8071e-08
6.74687e-08
6.70583e-08
6.6762e-08
6.64276e-08
6.61017e-08
6.58586e-08
6.54245e-08
6.50715e-08
6.49269e-08
6.48294e-08
6.47566e-08
6.44823e-08
6.42778e-08
6.4056e-08
6.37855e-08
6.34746e-08
6.31123e-08
6.27033e-08
6.23672e-08
6.20532e-08
6.17503e-08
6.13635e-08
6.09154e-08
6.03183e-08
5.96316e-08
5.88467e-08
5.75786e-08
5.65299e-08
5.49321e-08
5.24416e-08
5.09048e-08
4.82504e-08
3.71948e-08
1.16926e-07
1.20312e-07
1.11303e-07
1.0486e-07
1.00971e-07
9.99901e-08
9.75281e-08
9.56506e-08
9.42156e-08
9.28156e-08
9.1484e-08
9.05615e-08
8.9916e-08
8.95588e-08
8.92014e-08
8.70908e-08
8.48831e-08
8.29246e-08
8.11944e-08
7.9667e-08
7.84198e-08
7.73874e-08
7.65562e-08
7.5465e-08
7.43359e-08
7.3477e-08
7.28231e-08
7.23066e-08
7.17402e-08
7.09498e-08
7.01629e-08
6.93686e-08
6.85368e-08
6.76532e-08
6.67195e-08
6.59169e-08
6.52459e-08
6.45369e-08
6.37547e-08
6.29447e-08
6.19611e-08
6.08809e-08
5.96589e-08
5.79908e-08
5.66135e-08
5.46181e-08
5.18206e-08
5.00298e-08
4.69233e-08
3.57409e-08
5.60092e-08
1.31312e-07
1.47206e-07
1.47231e-07
1.42953e-07
1.40596e-07
1.36106e-07
1.31424e-07
1.27015e-07
1.23091e-07
1.19446e-07
1.16234e-07
1.13492e-07
1.11156e-07
1.09231e-07
1.07817e-07
1.04082e-07
1.00598e-07
9.7504e-08
9.47234e-08
9.22132e-08
8.99417e-08
8.78848e-08
8.59325e-08
8.41606e-08
8.26005e-08
8.12561e-08
8.00628e-08
7.89776e-08
7.77228e-08
7.62883e-08
7.48608e-08
7.34566e-08
7.20643e-08
7.06007e-08
6.91012e-08
6.78838e-08
6.67964e-08
6.56189e-08
6.43898e-08
6.29773e-08
6.14948e-08
5.98568e-08
5.78526e-08
5.61779e-08
5.37171e-08
5.07227e-08
4.86584e-08
4.52172e-08
3.40786e-08
1.45594e-08
7.72815e-08
1.13634e-07
1.40665e-07
1.53669e-07
1.58678e-07
1.5931e-07
1.56295e-07
1.523e-07
1.48327e-07
1.43943e-07
1.39603e-07
1.35503e-07
1.31679e-07
1.28248e-07
1.25694e-07
1.22874e-07
1.17972e-07
1.13487e-07
1.09353e-07
1.05529e-07
1.02043e-07
9.88535e-08
9.59215e-08
9.36047e-08
9.14075e-08
8.93823e-08
8.74195e-08
8.55767e-08
8.37648e-08
8.17564e-08
7.9737e-08
7.77091e-08
7.57171e-08
7.37137e-08
7.17348e-08
6.97781e-08
6.81687e-08
6.65775e-08
6.49352e-08
6.31302e-08
6.12946e-08
5.92854e-08
5.69537e-08
5.49561e-08
5.21279e-08
4.90212e-08
4.67986e-08
4.31748e-08
3.20369e-08
2.55268e-09
1.8718e-08
4.99843e-08
8.80638e-08
1.1992e-07
1.41138e-07
1.53483e-07
1.58664e-07
1.61894e-07
1.62349e-07
1.60926e-07
1.57721e-07
1.53557e-07
1.4947e-07
1.45353e-07
1.41884e-07
1.38813e-07
1.33194e-07
1.27612e-07
1.22362e-07
1.17442e-07
1.12867e-07
1.0857e-07
1.04526e-07
1.01438e-07
9.8614e-08
9.59253e-08
9.32769e-08
9.07368e-08
8.82397e-08
8.57338e-08
8.31527e-08
8.06254e-08
7.81229e-08
7.56824e-08
7.32132e-08
7.07977e-08
6.83791e-08
6.6356e-08
6.44161e-08
6.2311e-08
6.01407e-08
5.77978e-08
5.52562e-08
5.30086e-08
4.98945e-08
4.68397e-08
4.45066e-08
4.08567e-08
2.98092e-08
2.055e-10
2.29556e-09
1.02926e-08
3.38453e-08
6.52756e-08
9.47756e-08
1.1812e-07
1.34041e-07
1.45075e-07
1.50907e-07
1.56479e-07
1.57773e-07
1.57305e-07
1.55718e-07
1.53285e-07
1.50872e-07
1.48084e-07
1.42395e-07
1.3636e-07
1.30536e-07
1.24965e-07
1.19673e-07
1.14651e-07
1.09899e-07
1.06153e-07
1.0291e-07
9.97102e-08
9.6588e-08
9.35392e-08
9.05024e-08
8.75048e-08
8.45201e-08
8.15384e-08
7.8659e-08
7.58301e-08
7.30916e-08
7.0367e-08
6.773e-08
6.50399e-08
6.26721e-08
6.03115e-08
5.79131e-08
5.53424e-08
5.26778e-08
5.0248e-08
4.69662e-08
4.40581e-08
4.17604e-08
3.81772e-08
2.73872e-08
1.1194e-10
5.68105e-10
1.77652e-09
6.25097e-09
1.90013e-08
4.21084e-08
6.68693e-08
8.80876e-08
1.05984e-07
1.19004e-07
1.28127e-07
1.33915e-07
1.37762e-07
1.39471e-07
1.40312e-07
1.42178e-07
1.41825e-07
1.38373e-07
1.33956e-07
1.2926e-07
1.24406e-07
1.19538e-07
1.14764e-07
1.10096e-07
1.0609e-07
1.02735e-07
9.9352e-08
9.59764e-08
9.2631e-08
8.93366e-08
8.60933e-08
8.29248e-08
7.97999e-08
7.67594e-08
7.37731e-08
7.08357e-08
6.79769e-08
6.51255e-08
6.23442e-08
5.96082e-08
5.69289e-08
5.44192e-08
5.17122e-08
4.90071e-08
4.64748e-08
4.32163e-08
4.05981e-08
3.85039e-08
3.47401e-08
2.45984e-08
5.83303e-11
2.46298e-10
5.51399e-10
1.26065e-09
3.31363e-09
8.73705e-09
1.96546e-08
3.55263e-08
5.33814e-08
7.03091e-08
8.48078e-08
9.59835e-08
1.04788e-07
1.10154e-07
1.13512e-07
1.16283e-07
1.17184e-07
1.1684e-07
1.1577e-07
1.13935e-07
1.11409e-07
1.08443e-07
1.05239e-07
1.01863e-07
9.85834e-08
9.56396e-08
9.25933e-08
8.94864e-08
8.63423e-08
8.32132e-08
8.00898e-08
7.71458e-08
7.42378e-08
7.13416e-08
6.84689e-08
6.56483e-08
6.28588e-08
6.00931e-08
5.73705e-08
5.46714e-08
5.20003e-08
4.93837e-08
4.67031e-08
4.40934e-08
4.15786e-08
3.8579e-08
3.63708e-08
3.43288e-08
3.05693e-08
2.13799e-08
3.39974e-11
1.32395e-10
2.70205e-10
4.75786e-10
8.64275e-10
1.66415e-09
3.42291e-09
7.05875e-09
1.34544e-08
2.26137e-08
3.32722e-08
4.4135e-08
5.42045e-08
6.25872e-08
6.95993e-08
7.53535e-08
7.98453e-08
8.28528e-08
8.50431e-08
8.61048e-08
8.63269e-08
8.59625e-08
8.50828e-08
8.3701e-08
8.19011e-08
7.9942e-08
7.78341e-08
7.55996e-08
7.32611e-08
7.08555e-08
6.85829e-08
6.63128e-08
6.40007e-08
6.16765e-08
5.92863e-08
5.68941e-08
5.44908e-08
5.20947e-08
4.96824e-08
4.73014e-08
4.49082e-08
4.25382e-08
4.01077e-08
3.77752e-08
3.54792e-08
3.29195e-08
3.11259e-08
2.9105e-08
2.57756e-08
1.78969e-08
2.17625e-11
8.0256e-11
1.56478e-10
2.56425e-10
3.87811e-10
5.78672e-10
8.85878e-10
1.4361e-09
2.45834e-09
4.30902e-09
7.32836e-09
1.146e-08
1.63846e-08
2.20326e-08
2.78106e-08
3.33845e-08
3.85742e-08
4.31802e-08
4.7145e-08
5.05361e-08
5.32567e-08
5.51542e-08
5.65918e-08
5.73378e-08
5.73153e-08
5.68621e-08
5.62062e-08
5.53185e-08
5.43719e-08
5.33329e-08
5.21894e-08
5.09441e-08
4.95742e-08
4.81108e-08
4.64986e-08
4.48517e-08
4.31178e-08
4.13178e-08
3.94777e-08
3.76111e-08
3.57232e-08
3.38418e-08
3.19308e-08
3.00893e-08
2.82516e-08
2.63617e-08
2.50401e-08
2.31578e-08
2.0531e-08
1.42532e-08
1.46441e-11
5.18234e-11
9.75134e-11
1.52661e-10
2.19641e-10
3.02428e-10
4.02702e-10
5.40732e-10
7.38652e-10
1.04237e-09
1.51111e-09
2.19666e-09
3.23284e-09
4.71225e-09
6.66357e-09
9.04953e-09
1.17698e-08
1.47031e-08
1.7718e-08
2.06458e-08
2.3422e-08
2.59514e-08
2.8207e-08
2.97799e-08
3.10134e-08
3.19782e-08
3.27256e-08
3.32441e-08
3.35639e-08
3.36768e-08
3.36359e-08
3.34431e-08
3.30725e-08
3.25503e-08
3.18565e-08
3.10528e-08
3.01099e-08
2.90935e-08
2.79985e-08
2.6819e-08
2.56036e-08
2.43431e-08
2.30516e-08
2.17664e-08
2.05606e-08
1.93752e-08
1.84437e-08
1.71082e-08
1.53138e-08
1.06942e-08
1.00639e-11
3.46272e-11
6.38289e-11
9.77212e-11
1.36632e-10
1.81355e-10
2.33383e-10
2.93649e-10
3.63401e-10
4.51542e-10
5.49319e-10
6.69701e-10
8.34929e-10
1.06611e-09
1.39428e-09
1.85403e-09
2.48427e-09
3.31882e-09
4.35978e-09
5.58609e-09
6.91851e-09
8.26535e-09
9.61029e-09
1.09114e-08
1.21316e-08
1.32586e-08
1.4276e-08
1.51794e-08
1.59565e-08
1.66071e-08
1.71606e-08
1.757e-08
1.78562e-08
1.79993e-08
1.80068e-08
1.7896e-08
1.76583e-08
1.73294e-08
1.69088e-08
1.64123e-08
1.58765e-08
1.52729e-08
1.46539e-08
1.4019e-08
1.34443e-08
1.2875e-08
1.23712e-08
1.16803e-08
1.05636e-08
7.38433e-09
6.94978e-12
2.34899e-11
4.27835e-11
6.47618e-11
8.93893e-11
1.16733e-10
1.47013e-10
1.80671e-10
2.18419e-10
2.57576e-10
2.9081e-10
3.27408e-10
3.68784e-10
4.17217e-10
4.77739e-10
5.52692e-10
6.55004e-10
7.87856e-10
9.60777e-10
1.18014e-09
1.45638e-09
1.79643e-09
2.1972e-09
2.6555e-09
3.16292e-09
3.7044e-09
4.26404e-09
4.83616e-09
5.39028e-09
5.93264e-09
6.44672e-09
6.90494e-09
7.30339e-09
7.64189e-09
7.9171e-09
8.11884e-09
8.26247e-09
8.34573e-09
8.36245e-09
8.32343e-09
8.25016e-09
8.13333e-09
8.01172e-09
7.87236e-09
7.74631e-09
7.61565e-09
7.54131e-09
7.32013e-09
6.64412e-09
4.56557e-09
4.76581e-12
1.59447e-11
2.88648e-11
4.34777e-11
5.97182e-11
7.75299e-11
9.68874e-11
1.17811e-10
1.39263e-10
1.57871e-10
1.76167e-10
1.94046e-10
2.10692e-10
2.26746e-10
2.43304e-10
2.60556e-10
2.78848e-10
3.02859e-10
3.30912e-10
3.62341e-10
4.03973e-10
4.51742e-10
5.13342e-10
5.85262e-10
6.78432e-10
7.90983e-10
9.23652e-10
1.07934e-09
1.25491e-09
1.44878e-09
1.65625e-09
1.87768e-09
2.0977e-09
2.31177e-09
2.53295e-09
2.73874e-09
2.93245e-09
3.10601e-09
3.2569e-09
3.3972e-09
3.52004e-09
3.62503e-09
3.72763e-09
3.82492e-09
3.92867e-09
4.0283e-09
4.14829e-09
4.11834e-09
3.69803e-09
2.42242e-09
3.20604e-12
1.06825e-11
1.93133e-11
2.9085e-11
3.99607e-11
5.18855e-11
6.47997e-11
7.71502e-11
8.89603e-11
1.0035e-10
1.11104e-10
1.21024e-10
1.29961e-10
1.37782e-10
1.44379e-10
1.49554e-10
1.54157e-10
1.58789e-10
1.62542e-10
1.65405e-10
1.67213e-10
1.70281e-10
1.73278e-10
1.75634e-10
1.79497e-10
1.86472e-10
1.93821e-10
2.09149e-10
2.31581e-10
2.75666e-10
3.24201e-10
3.87822e-10
4.56087e-10
5.37482e-10
6.22413e-10
7.17692e-10
8.13346e-10
9.24161e-10
1.03351e-09
1.14454e-09
1.26015e-09
1.38482e-09
1.51494e-09
1.64934e-09
1.78728e-09
1.92531e-09
2.04653e-09
2.01931e-09
1.77865e-09
1.05474e-09
2.0788e-12
6.94342e-12
1.2602e-11
1.9068e-11
2.60961e-11
3.34851e-11
4.11369e-11
4.88585e-11
5.64429e-11
6.36858e-11
7.03934e-11
7.63753e-11
8.14645e-11
8.55075e-11
8.83634e-11
9.01775e-11
9.14904e-11
9.15065e-11
9.01143e-11
8.74988e-11
8.33681e-11
7.75695e-11
6.99851e-11
6.05204e-11
4.93525e-11
5.2334e-11
5.65438e-11
6.11808e-11
6.65747e-11
7.56946e-11
8.71739e-11
1.00925e-10
1.20613e-10
1.43036e-10
1.70526e-10
2.03491e-10
2.39396e-10
2.83727e-10
3.31847e-10
3.82141e-10
4.39285e-10
4.99457e-10
5.60663e-10
6.49695e-10
7.445e-10
8.29437e-10
8.70675e-10
8.4745e-10
7.02495e-10
3.53382e-10
1.21048e-12
4.0861e-12
7.45813e-12
1.1304e-11
1.55614e-11
2.01354e-11
2.49065e-11
2.97367e-11
3.44783e-11
3.89766e-11
4.30816e-11
4.66451e-11
4.95196e-11
5.15696e-11
5.2986e-11
5.37359e-11
5.34615e-11
5.2048e-11
4.937e-11
4.52922e-11
3.96469e-11
3.22577e-11
2.29376e-11
2.26133e-11
2.24728e-11
2.2154e-11
2.17938e-11
2.15566e-11
2.16572e-11
2.30011e-11
2.58992e-11
3.01188e-11
3.5777e-11
4.37764e-11
5.41505e-11
6.63356e-11
8.03212e-11
9.74976e-11
1.16955e-10
1.37869e-10
1.6006e-10
1.8269e-10
2.04508e-10
2.28352e-10
2.74753e-10
3.07854e-10
3.24549e-10
2.97747e-10
2.10923e-10
1.00357e-10
5.80856e-13
2.06008e-12
3.88177e-12
6.02291e-12
8.4347e-12
1.10487e-11
1.37849e-11
1.65527e-11
1.92528e-11
2.17814e-11
2.40309e-11
2.5897e-11
2.74284e-11
2.85521e-11
2.90665e-11
2.88786e-11
2.78904e-11
2.59919e-11
2.30608e-11
1.89623e-11
1.35595e-11
1.19034e-11
1.11966e-11
1.02775e-11
9.16862e-12
7.91875e-12
6.68339e-12
5.73801e-12
4.98648e-12
4.67162e-12
5.08213e-12
6.34879e-12
8.49355e-12
1.17718e-11
1.62667e-11
2.18108e-11
2.8329e-11
3.56596e-11
4.35891e-11
5.18265e-11
6.00254e-11
6.73564e-11
7.30176e-11
7.57823e-11
9.08198e-11
1.04052e-10
1.01302e-10
8.23025e-11
5.21639e-11
2.44136e-11
1.64403e-13
7.20722e-13
1.52594e-12
2.49596e-12
3.58878e-12
4.76278e-12
5.98067e-12
7.19373e-12
8.39144e-12
9.51694e-12
1.04931e-11
1.12571e-11
1.17438e-11
1.18885e-11
1.16227e-11
1.08663e-11
9.52733e-12
7.51213e-12
5.89996e-12
5.62766e-12
5.20021e-12
4.62921e-12
3.86774e-12
2.94419e-12
1.88718e-12
6.81146e-13
6.79404e-14
7.18468e-14
7.78425e-14
8.6379e-14
9.98187e-14
1.29209e-13
1.62033e-13
1.97754e-13
2.28162e-12
4.99557e-12
8.15515e-12
1.16209e-11
1.50939e-11
1.81774e-11
2.08487e-11
2.26917e-11
2.3618e-11
2.27047e-11
2.10485e-11
2.38753e-11
2.10429e-11
1.53196e-11
8.83025e-12
3.97798e-12
5.29147e-15
9.39176e-14
2.06797e-13
2.93755e-13
3.61153e-13
3.94222e-13
3.87007e-13
4.31458e-13
5.11407e-13
5.84823e-13
6.46205e-13
6.89611e-13
7.09187e-13
7.00856e-13
6.62503e-13
5.81262e-13
4.44388e-13
2.43755e-13
1.48287e-14
1.47119e-14
1.4365e-14
1.37814e-14
1.29834e-14
1.2049e-14
1.10968e-14
1.02852e-14
9.83667e-15
9.95086e-15
1.07292e-14
1.22755e-14
1.46817e-14
1.7886e-14
2.17521e-14
2.6139e-14
3.0845e-14
3.55904e-14
4.00421e-14
4.38365e-14
4.65502e-14
4.78003e-14
4.73182e-14
7.6974e-13
1.40289e-12
1.69659e-12
1.68863e-12
1.45081e-12
1.06006e-12
6.8245e-13
3.58081e-13
2.06162e-13
)
;

boundaryField
{
    AXIS
    {
        type            empty;
    }
    OUTLET
    {
        type            calculated;
        value           nonuniform List<scalar> 
25
(
4.12156e-08
4.09683e-08
4.04261e-08
3.95957e-08
3.85052e-08
3.71948e-08
3.57409e-08
3.40786e-08
3.20369e-08
2.98092e-08
2.73872e-08
2.45984e-08
2.13799e-08
1.78969e-08
1.42532e-08
1.06942e-08
7.38433e-09
4.56557e-09
2.42242e-09
1.05474e-09
3.53382e-10
1.00357e-10
2.44136e-11
3.97798e-12
2.06162e-13
)
;
    }
    COFLOW
    {
        type            calculated;
        value           uniform 0;
    }
    PILOT
    {
        type            calculated;
        value           uniform 1.72298e-17;
    }
    FUEL
    {
        type            calculated;
        value           uniform 0;
    }
    WALL
    {
        type            calculated;
        value           nonuniform List<scalar> 
50
(
5.29147e-15
9.39176e-14
2.06797e-13
2.93755e-13
3.61153e-13
3.94222e-13
3.87007e-13
4.31458e-13
5.11407e-13
5.84823e-13
6.46205e-13
6.89611e-13
7.09187e-13
7.00856e-13
6.62503e-13
5.81262e-13
4.44388e-13
2.43755e-13
1.48287e-14
1.47119e-14
1.4365e-14
1.37814e-14
1.29834e-14
1.2049e-14
1.10968e-14
1.02852e-14
9.83667e-15
9.95086e-15
1.07292e-14
1.22755e-14
1.46817e-14
1.7886e-14
2.17521e-14
2.6139e-14
3.0845e-14
3.55904e-14
4.00421e-14
4.38365e-14
4.65502e-14
4.78003e-14
4.73182e-14
7.6974e-13
1.40289e-12
1.69659e-12
1.68863e-12
1.45081e-12
1.06006e-12
6.8245e-13
3.58081e-13
2.06162e-13
)
;
    }
    front
    {
        type            wedge;
    }
    back
    {
        type            wedge;
    }
}


// ************************************************************************* //
