/*--------------------------------*- C++ -*----------------------------------*\
| =========                 |                                                 |
| \\      /  F ield         | OpenFOAM: The Open Source CFD Toolbox           |
|  \\    /   O peration     | Version:  2.4.x                                 |
|   \\  /    A nd           | Web:      www.OpenFOAM.org                      |
|    \\/     M anipulation  |                                                 |
\*---------------------------------------------------------------------------*/
FoamFile
{
    version     2.0;
    format      ascii;
    class       volScalarField;
    location    "0.1";
    object      CH2O;
}
// * * * * * * * * * * * * * * * * * * * * * * * * * * * * * * * * * * * * * //

dimensions      [0 0 0 0 0 0 0];

internalField   nonuniform List<scalar> 
1250
(
4.89075e-06
1.7198e-05
2.85163e-05
3.79926e-05
4.61934e-05
5.31321e-05
5.89484e-05
6.38267e-05
6.90328e-05
7.90717e-05
8.99635e-05
0.000102146
0.000114821
0.000127696
0.000140267
0.000153061
0.000166163
0.000179806
0.000192673
0.000204925
0.000216166
0.000226561
0.000235805
0.000244578
0.000253016
0.000259348
0.0002628
0.000263064
0.000260708
0.000255736
0.000248429
0.000239283
0.000227761
0.000213577
0.000198391
0.000182582
0.000166679
0.000150919
0.000135774
0.000121235
0.000107547
9.48736e-05
8.34383e-05
7.28167e-05
6.37716e-05
5.48743e-05
4.76818e-05
4.41997e-05
4.04728e-05
2.59607e-05
5.8283e-06
1.9443e-05
3.07885e-05
3.99754e-05
4.75642e-05
5.37213e-05
5.86362e-05
6.26789e-05
7.13716e-05
8.14962e-05
9.24431e-05
0.00010458
0.000117276
0.000129879
0.000142383
0.000154997
0.000167976
0.000181278
0.000193965
0.000205853
0.000216884
0.000226959
0.000235901
0.0002443
0.000251675
0.000257841
0.000260939
0.000261059
0.000258502
0.000253376
0.000246029
0.000236804
0.000225563
0.000211473
0.000196396
0.000180746
0.000165007
0.000149455
0.000134476
0.000120132
0.000106604
9.41555e-05
8.28195e-05
7.2344e-05
6.33763e-05
5.45707e-05
4.74353e-05
4.39994e-05
4.02889e-05
2.57434e-05
8.85918e-06
2.57446e-05
3.66063e-05
4.44243e-05
4.9848e-05
5.34033e-05
5.80878e-05
6.71515e-05
7.68659e-05
8.68717e-05
9.80127e-05
0.000110089
0.000122412
0.000134661
0.000147025
0.000159189
0.000171782
0.000184489
0.000196553
0.000207821
0.000218253
0.000227647
0.000235939
0.000243427
0.000249359
0.000254559
0.000257042
0.000256796
0.000253814
0.000248368
0.000240921
0.000231495
0.000220631
0.0002069
0.000192039
0.000176728
0.000161331
0.000146256
0.000131578
0.000117686
0.000104446
9.24758e-05
8.13627e-05
7.12061e-05
6.24153e-05
5.38314e-05
4.69503e-05
4.35761e-05
3.99954e-05
2.52351e-05
1.84499e-05
3.91221e-05
4.61869e-05
4.79056e-05
5.04044e-05
5.82455e-05
6.67168e-05
7.57168e-05
8.53138e-05
9.52255e-05
0.000106456
0.000118068
0.000129932
0.00014185
0.000153612
0.000165024
0.000177032
0.000188808
0.000199979
0.000210343
0.000219745
0.000228159
0.000235283
0.000241569
0.000246379
0.000249549
0.000251386
0.000250396
0.000246833
0.000241105
0.000233261
0.000223794
0.000212965
0.000200149
0.000185664
0.000170802
0.000155991
0.000141422
0.000127303
0.000113934
0.000101304
8.98569e-05
7.91911e-05
6.94427e-05
6.10012e-05
5.27759e-05
4.61289e-05
4.27849e-05
3.93926e-05
2.44931e-05
5.63474e-05
6.44423e-05
5.33609e-05
5.75981e-05
6.34536e-05
7.03696e-05
7.83084e-05
8.71017e-05
9.64493e-05
0.000106034
0.000117026
0.000128163
0.000139303
0.000150282
0.000161115
0.000171697
0.000182787
0.000193501
0.000203382
0.000212469
0.000220485
0.000227484
0.000233384
0.000238144
0.000241637
0.000243581
0.000243964
0.000242147
0.000237938
0.000231626
0.000223562
0.000214002
0.000203158
0.000191387
0.000177468
0.000163256
0.000149046
0.000135126
0.000121703
0.000109057
9.72132e-05
8.63232e-05
7.62446e-05
6.69849e-05
5.90143e-05
5.12213e-05
4.49577e-05
4.15369e-05
3.84877e-05
2.35235e-05
0.000162425
9.11203e-05
8.04926e-05
8.1039e-05
8.53185e-05
9.12877e-05
9.82604e-05
0.000106132
0.000114012
0.000122013
0.000131008
0.000140098
0.000149108
0.000159096
0.000168886
0.000178304
0.0001882
0.000197309
0.000205651
0.000213166
0.000219579
0.000225006
0.000229407
0.000232671
0.000234564
0.000235185
0.000234448
0.000232157
0.000227214
0.000220452
0.000212015
0.000202318
0.000191618
0.000180169
0.000167811
0.000154135
0.000140653
0.000127488
0.000115022
0.000103251
9.21409e-05
8.19845e-05
7.25085e-05
6.39249e-05
5.64843e-05
4.91588e-05
4.32698e-05
4.00248e-05
3.71543e-05
2.2377e-05
0.000156748
0.000131795
0.000112516
0.000107559
0.000108139
0.000112814
0.000118269
0.000124503
0.000131164
0.000138248
0.000145896
0.000153547
0.000161014
0.000168305
0.0001755
0.00018362
0.000191759
0.000199124
0.000205681
0.000211403
0.000216078
0.000219914
0.000222882
0.000224576
0.000224958
0.000224245
0.000222413
0.000219507
0.000214782
0.000207447
0.000198804
0.000189136
0.000178662
0.000167543
0.000156049
0.000143722
0.00013111
0.00011898
0.000107341
9.6438e-05
8.61553e-05
7.6803e-05
6.81245e-05
6.0257e-05
5.33825e-05
4.64969e-05
4.11963e-05
3.80901e-05
3.53287e-05
2.10027e-05
3.66685e-05
0.000118512
0.000116497
0.000117969
0.000120433
0.000125895
0.000131669
0.000137602
0.000143643
0.000149973
0.000156303
0.000162547
0.000168643
0.000174514
0.000180124
0.000185729
0.000192013
0.000197485
0.000202198
0.000206125
0.000209279
0.000211617
0.000213149
0.000213654
0.000212687
0.000210711
0.000207865
0.000204172
0.000199663
0.00019288
0.000184112
0.000174547
0.000164367
0.000153728
0.000142949
0.000132074
0.000120667
0.000109456
9.88018e-05
8.88223e-05
7.95094e-05
7.10322e-05
6.31212e-05
5.59724e-05
4.96014e-05
4.34316e-05
3.86328e-05
3.57623e-05
3.31013e-05
1.96548e-05
4.34044e-06
7.22372e-05
8.8177e-05
0.0001029
0.000114407
0.000123524
0.0001322
0.000139666
0.000146531
0.000152639
0.000158465
0.000164024
0.000169332
0.000174312
0.000178991
0.000183445
0.000187661
0.000191468
0.000194559
0.000196993
0.000198693
0.000199699
0.000200054
0.000199646
0.000197542
0.000194632
0.000191042
0.000186778
0.000181926
0.000176488
0.000167993
0.000158746
0.000149098
0.000139171
0.000129174
0.000119142
0.000109166
9.91249e-05
8.95628e-05
8.06259e-05
7.22752e-05
6.47009e-05
5.75542e-05
5.12051e-05
4.55639e-05
3.99295e-05
3.5751e-05
3.30702e-05
3.05371e-05
1.88381e-05
5.68017e-07
2.5752e-05
4.7905e-05
6.99325e-05
8.90136e-05
0.000104646
0.000117506
0.000128309
0.000137569
0.00014554
0.000152805
0.000159215
0.000164987
0.000170202
0.000174712
0.000177517
0.000180042
0.000182087
0.00018356
0.000184527
0.000184928
0.000184687
0.000183901
0.000182525
0.000179751
0.00017626
0.000172251
0.000167748
0.00016281
0.000157478
0.000150691
0.000141987
0.000133014
0.000123922
0.00011477
0.000105772
9.68943e-05
8.82921e-05
7.98877e-05
7.19686e-05
6.45579e-05
5.79288e-05
5.16796e-05
4.60625e-05
4.10524e-05
3.60552e-05
3.24397e-05
3.00836e-05
2.76682e-05
1.78818e-05
1.12096e-07
6.54793e-06
1.9083e-05
3.62719e-05
5.57051e-05
7.39848e-05
9.03267e-05
0.000104428
0.000114855
0.000123896
0.000132748
0.000140682
0.00014772
0.000154032
0.000159316
0.000162073
0.000164438
0.00016569
0.000166217
0.000166285
0.000165911
0.000164996
0.000163728
0.000161985
0.000159064
0.000155379
0.000151316
0.000146915
0.000142192
0.000137221
0.000131879
0.000123971
0.000115961
0.000107882
9.98837e-05
9.19769e-05
8.42562e-05
7.67079e-05
6.95988e-05
6.28139e-05
5.64589e-05
5.07423e-05
4.53562e-05
4.05266e-05
3.61522e-05
3.18906e-05
2.89227e-05
2.68406e-05
2.52312e-05
1.67213e-05
2.14457e-07
2.37898e-06
7.07537e-06
1.41998e-05
2.54516e-05
4.07621e-05
5.68848e-05
7.02544e-05
8.2211e-05
9.28099e-05
0.000102234
0.000110533
0.000118059
0.000124735
0.000129814
0.000133896
0.000137195
0.000139061
0.000140045
0.000140436
0.000140302
0.000139634
0.000138578
0.000137108
0.000134606
0.000131232
0.000127545
0.000123606
0.000119446
0.000115125
0.00011061
0.000104121
9.7339e-05
9.05596e-05
8.38323e-05
7.72248e-05
7.07338e-05
6.45596e-05
5.85761e-05
5.29264e-05
4.76026e-05
4.28209e-05
3.84039e-05
3.44569e-05
3.08003e-05
2.72861e-05
2.49716e-05
2.32059e-05
2.25817e-05
1.52768e-05
2.17646e-07
1.19455e-06
2.99475e-06
5.53557e-06
9.36604e-06
1.57352e-05
2.43896e-05
3.48301e-05
4.58397e-05
5.64034e-05
6.62138e-05
7.50569e-05
8.31479e-05
9.04987e-05
9.50452e-05
9.88822e-05
0.000101966
0.000104364
0.00010619
0.000107463
0.00010826
0.00010851
0.000108329
0.000107723
0.000106253
0.000103683
0.000100859
9.78242e-05
9.45769e-05
9.12424e-05
8.76816e-05
8.24108e-05
7.71015e-05
7.18663e-05
6.66584e-05
6.15155e-05
5.64885e-05
5.1663e-05
4.69788e-05
4.25813e-05
3.83614e-05
3.44919e-05
3.08949e-05
2.78592e-05
2.50054e-05
2.22676e-05
2.05031e-05
1.95678e-05
1.95628e-05
1.34882e-05
1.64171e-07
6.89248e-07
1.50587e-06
2.5332e-06
3.82885e-06
5.53601e-06
7.96882e-06
1.17149e-05
1.7149e-05
2.34758e-05
3.05457e-05
3.78345e-05
4.49195e-05
5.07082e-05
5.57949e-05
6.01846e-05
6.40974e-05
6.73109e-05
7.00569e-05
7.22447e-05
7.39311e-05
7.50812e-05
7.58492e-05
7.61733e-05
7.57367e-05
7.44015e-05
7.28236e-05
7.10233e-05
6.90056e-05
6.6845e-05
6.36518e-05
6.01091e-05
5.65098e-05
5.29239e-05
4.92959e-05
4.571e-05
4.21815e-05
3.87282e-05
3.54093e-05
3.22212e-05
2.91837e-05
2.6364e-05
2.37139e-05
2.13823e-05
1.92031e-05
1.7391e-05
1.65177e-05
1.61275e-05
1.62522e-05
1.13996e-05
1.12467e-07
4.24217e-07
8.38707e-07
1.33463e-06
1.87956e-06
2.47355e-06
3.13656e-06
3.93402e-06
4.98208e-06
6.55822e-06
8.9761e-06
1.24623e-05
1.65547e-05
2.03597e-05
2.41638e-05
2.77736e-05
3.11681e-05
3.42884e-05
3.71157e-05
3.95796e-05
4.17619e-05
4.35211e-05
4.49478e-05
4.60023e-05
4.63879e-05
4.63524e-05
4.60937e-05
4.55585e-05
4.42895e-05
4.26839e-05
4.09445e-05
3.9109e-05
3.7156e-05
3.51288e-05
3.29856e-05
3.08508e-05
2.86963e-05
2.65352e-05
2.44474e-05
2.24418e-05
2.05021e-05
1.86663e-05
1.6976e-05
1.54437e-05
1.4109e-05
1.31115e-05
1.27112e-05
1.26138e-05
1.27857e-05
9.08539e-06
7.50042e-08
2.65707e-07
4.97016e-07
7.56652e-07
1.02949e-06
1.30002e-06
1.54388e-06
1.76745e-06
1.96586e-06
2.14518e-06
2.43711e-06
3.0675e-06
3.92769e-06
5.05369e-06
6.45627e-06
8.10517e-06
9.92849e-06
1.18399e-05
1.37837e-05
1.55878e-05
1.72869e-05
1.87812e-05
2.0039e-05
2.11454e-05
2.20349e-05
2.26477e-05
2.29864e-05
2.31117e-05
2.30223e-05
2.27218e-05
2.23025e-05
2.17219e-05
2.10022e-05
2.01945e-05
1.92626e-05
1.82734e-05
1.72204e-05
1.61463e-05
1.50662e-05
1.39851e-05
1.2927e-05
1.19225e-05
1.10161e-05
1.0196e-05
9.54438e-06
9.13474e-06
9.05513e-06
9.26348e-06
9.3246e-06
6.77228e-06
4.86307e-08
1.6606e-07
3.01137e-07
4.46547e-07
5.9265e-07
7.2914e-07
8.45911e-07
9.30894e-07
9.72702e-07
9.66306e-07
1.03098e-06
1.14236e-06
1.26334e-06
1.40138e-06
1.5737e-06
1.79185e-06
2.0755e-06
2.44215e-06
2.88757e-06
3.39648e-06
4.03276e-06
4.86953e-06
5.69834e-06
6.49452e-06
7.22655e-06
7.88168e-06
8.43204e-06
8.87579e-06
9.19901e-06
9.43398e-06
9.58656e-06
9.61602e-06
9.58197e-06
9.44743e-06
9.24306e-06
8.97676e-06
8.64232e-06
8.26992e-06
7.86924e-06
7.45128e-06
7.0358e-06
6.63426e-06
6.28034e-06
5.97941e-06
5.80649e-06
5.7489e-06
5.91175e-06
6.30115e-06
6.29046e-06
4.5857e-06
3.04697e-08
1.01841e-07
1.81496e-07
2.65039e-07
3.46738e-07
4.20154e-07
4.78547e-07
5.15185e-07
5.23199e-07
5.2224e-07
5.56245e-07
5.7998e-07
5.92131e-07
5.92722e-07
5.84494e-07
5.60316e-07
5.28579e-07
4.81594e-07
5.32991e-07
6.47445e-07
7.90707e-07
9.65489e-07
1.16753e-06
1.39517e-06
1.64434e-06
1.9009e-06
2.15467e-06
2.40494e-06
2.62725e-06
2.83168e-06
3.0159e-06
3.16208e-06
3.27491e-06
3.3558e-06
3.40405e-06
3.41554e-06
3.40302e-06
3.3676e-06
3.30739e-06
3.23327e-06
3.15935e-06
3.09552e-06
3.06328e-06
3.06423e-06
3.13397e-06
3.27565e-06
3.57652e-06
3.9117e-06
3.84281e-06
2.75303e-06
1.82254e-08
6.01858e-08
1.06238e-07
1.53754e-07
1.99354e-07
2.39104e-07
2.68743e-07
2.83863e-07
2.89751e-07
3.12097e-07
3.26872e-07
3.32659e-07
3.28081e-07
3.12218e-07
2.84194e-07
2.42463e-07
1.85409e-07
1.68899e-07
1.82362e-07
1.9601e-07
2.14704e-07
2.33975e-07
2.58521e-07
2.84466e-07
3.17878e-07
3.55935e-07
3.97895e-07
4.44639e-07
4.93941e-07
5.46703e-07
6.02311e-07
6.61783e-07
7.18795e-07
7.7245e-07
8.29739e-07
8.81386e-07
9.29939e-07
9.73782e-07
1.01319e-06
1.05616e-06
1.10302e-06
1.15955e-06
1.23791e-06
1.3496e-06
1.49756e-06
1.68541e-06
1.95334e-06
2.16012e-06
2.08085e-06
1.40477e-06
1.01798e-08
3.34197e-08
5.86856e-08
8.44223e-08
1.0861e-07
1.28834e-07
1.42391e-07
1.59389e-07
1.7617e-07
1.88481e-07
1.95267e-07
1.95495e-07
1.88219e-07
1.72506e-07
1.47434e-07
1.12301e-07
8.53974e-08
8.6937e-08
8.7485e-08
8.69753e-08
8.52426e-08
8.36779e-08
8.0892e-08
7.63186e-08
7.0867e-08
6.46042e-08
5.62594e-08
4.84141e-08
4.33882e-08
5.21034e-08
6.16662e-08
7.46243e-08
8.8503e-08
1.05468e-07
1.23166e-07
1.43419e-07
1.637e-07
1.88204e-07
2.12315e-07
2.37102e-07
2.63235e-07
3.26788e-07
4.10248e-07
5.1649e-07
6.45462e-07
7.91387e-07
9.54973e-07
1.03676e-06
9.77166e-07
5.90155e-07
5.08505e-09
1.66762e-08
2.91782e-08
4.16628e-08
5.49298e-08
6.88854e-08
8.21635e-08
9.39953e-08
1.03565e-07
1.10061e-07
1.1269e-07
1.10667e-07
1.03258e-07
8.97569e-08
6.94677e-08
4.97811e-08
4.96802e-08
4.86762e-08
4.66873e-08
4.39899e-08
4.00313e-08
3.46562e-08
2.77329e-08
1.91385e-08
8.93819e-09
9.5095e-09
1.03227e-08
1.12069e-08
1.22225e-08
1.39775e-08
1.6173e-08
1.87866e-08
2.26039e-08
2.693e-08
3.22859e-08
3.87661e-08
4.58022e-08
5.46966e-08
6.43583e-08
7.44226e-08
8.60228e-08
9.8211e-08
1.10501e-07
1.73476e-07
2.53268e-07
3.352e-07
4.00942e-07
4.31804e-07
3.78285e-07
1.91197e-07
2.456e-09
8.248e-09
1.49037e-08
2.22426e-08
2.99691e-08
3.76912e-08
4.49411e-08
5.11953e-08
5.58981e-08
5.8477e-08
5.83548e-08
5.49667e-08
4.77519e-08
3.61654e-08
2.92385e-08
2.91644e-08
2.84025e-08
2.68757e-08
2.44983e-08
2.11763e-08
1.67935e-08
1.12244e-08
4.33058e-09
4.06117e-09
4.04672e-09
3.99769e-09
3.93881e-09
3.89992e-09
3.92034e-09
4.17554e-09
4.72057e-09
5.50695e-09
6.55781e-09
8.05878e-09
1.00165e-08
1.23144e-08
1.49494e-08
1.82219e-08
2.19368e-08
2.592e-08
3.01326e-08
3.44062e-08
3.84916e-08
4.73299e-08
8.67288e-08
1.22123e-07
1.51138e-07
1.50941e-07
1.10314e-07
5.22003e-08
1.05259e-09
3.70131e-09
6.85874e-09
1.03799e-08
1.40505e-08
1.76031e-08
2.07319e-08
2.31004e-08
2.43497e-08
2.41023e-08
2.19653e-08
1.75463e-08
1.5168e-08
1.55585e-08
1.5542e-08
1.50588e-08
1.40452e-08
1.24289e-08
1.01285e-08
7.05363e-09
3.11115e-09
2.1344e-09
2.00686e-09
1.84113e-09
1.64121e-09
1.41585e-09
1.19313e-09
1.02534e-09
8.90291e-10
8.32752e-10
9.06096e-10
1.13501e-09
1.52404e-09
2.12301e-09
2.94955e-09
3.97159e-09
5.17484e-09
6.52854e-09
7.99205e-09
9.50981e-09
1.10159e-08
1.2357e-08
1.33827e-08
1.38622e-08
2.73433e-08
4.22423e-08
4.656e-08
4.01282e-08
2.61527e-08
1.23417e-08
2.41797e-10
1.03643e-09
2.07723e-09
3.15002e-09
4.09766e-09
4.75629e-09
4.96147e-09
4.53205e-09
4.64781e-09
5.21074e-09
5.6638e-09
5.96733e-09
6.08022e-09
5.96202e-09
5.57031e-09
4.85475e-09
3.75633e-09
2.21428e-09
1.05887e-09
1.00969e-09
9.3261e-10
8.29697e-10
6.92502e-10
5.26111e-10
3.35658e-10
1.1834e-10
7.75746e-12
8.20204e-12
8.88433e-12
9.85526e-12
1.13887e-11
1.47722e-11
1.85449e-11
2.2644e-11
3.99111e-10
8.90884e-10
1.46415e-09
2.09316e-09
2.72316e-09
3.28179e-09
3.76386e-09
4.09296e-09
4.25167e-09
4.07222e-09
4.1655e-09
8.12394e-09
8.51619e-09
6.7274e-09
4.0067e-09
1.83395e-09
4.58219e-12
5.22276e-11
1.10115e-10
1.44128e-10
1.5789e-10
1.41614e-10
9.10462e-11
7.74933e-11
9.18287e-11
1.0498e-10
1.15958e-10
1.23694e-10
1.27136e-10
1.25553e-10
1.18566e-10
1.03862e-10
7.91473e-11
4.29608e-11
1.6946e-12
1.68134e-12
1.64179e-12
1.57517e-12
1.48406e-12
1.37732e-12
1.26851e-12
1.17575e-12
1.12443e-12
1.13741e-12
1.22624e-12
1.40274e-12
1.67736e-12
2.04295e-12
2.48385e-12
2.98391e-12
3.52006e-12
4.06041e-12
4.56708e-12
4.99879e-12
5.30751e-12
5.44984e-12
5.3953e-12
1.35604e-10
2.49914e-10
3.03256e-10
3.02356e-10
2.60058e-10
1.9015e-10
1.22471e-10
6.42622e-11
3.70364e-11
)
;

boundaryField
{
    AXIS
    {
        type            empty;
    }
    OUTLET
    {
        type            calculated;
        value           nonuniform List<scalar> 
25
(
2.59607e-05
2.57434e-05
2.52351e-05
2.44931e-05
2.35235e-05
2.2377e-05
2.10027e-05
1.96548e-05
1.88381e-05
1.78818e-05
1.67213e-05
1.52768e-05
1.34882e-05
1.13996e-05
9.08539e-06
6.77228e-06
4.5857e-06
2.75303e-06
1.40477e-06
5.90155e-07
1.91197e-07
5.22003e-08
1.23417e-08
1.83395e-09
3.70364e-11
)
;
    }
    COFLOW
    {
        type            calculated;
        value           uniform 0;
    }
    PILOT
    {
        type            calculated;
        value           uniform 3.5764e-12;
    }
    FUEL
    {
        type            calculated;
        value           uniform 0;
    }
    WALL
    {
        type            calculated;
        value           nonuniform List<scalar> 
50
(
4.58219e-12
5.22276e-11
1.10115e-10
1.44128e-10
1.5789e-10
1.41614e-10
9.10462e-11
7.74933e-11
9.18287e-11
1.0498e-10
1.15958e-10
1.23694e-10
1.27136e-10
1.25553e-10
1.18566e-10
1.03862e-10
7.91473e-11
4.29608e-11
1.6946e-12
1.68134e-12
1.64179e-12
1.57517e-12
1.48406e-12
1.37732e-12
1.26851e-12
1.17575e-12
1.12443e-12
1.13741e-12
1.22624e-12
1.40274e-12
1.67736e-12
2.04295e-12
2.48385e-12
2.98391e-12
3.52006e-12
4.06041e-12
4.56708e-12
4.99879e-12
5.30751e-12
5.44984e-12
5.3953e-12
1.35604e-10
2.49914e-10
3.03256e-10
3.02356e-10
2.60058e-10
1.9015e-10
1.22471e-10
6.42622e-11
3.70364e-11
)
;
    }
    front
    {
        type            wedge;
    }
    back
    {
        type            wedge;
    }
}


// ************************************************************************* //
