/*--------------------------------*- C++ -*----------------------------------*\
| =========                 |                                                 |
| \\      /  F ield         | OpenFOAM: The Open Source CFD Toolbox           |
|  \\    /   O peration     | Version:  2.4.x                                 |
|   \\  /    A nd           | Web:      www.OpenFOAM.org                      |
|    \\/     M anipulation  |                                                 |
\*---------------------------------------------------------------------------*/
FoamFile
{
    version     2.0;
    format      ascii;
    class       volScalarField;
    location    "0.1";
    object      CH3;
}
// * * * * * * * * * * * * * * * * * * * * * * * * * * * * * * * * * * * * * //

dimensions      [0 0 0 0 0 0 0];

internalField   nonuniform List<scalar> 
1250
(
6.7374e-07
2.50755e-06
4.52777e-06
6.73315e-06
9.40014e-06
1.27015e-05
1.67472e-05
2.15472e-05
2.68646e-05
3.19545e-05
3.73221e-05
4.27119e-05
4.84636e-05
5.44213e-05
6.05332e-05
6.68602e-05
7.29192e-05
7.8763e-05
8.49184e-05
9.1384e-05
9.80808e-05
0.000105027
0.000112124
0.00011881
0.000124909
0.000130527
0.000136266
0.000141762
0.000147166
0.000152153
0.000156757
0.000160833
0.00016458
0.000168376
0.000171654
0.00017405
0.000175534
0.000176183
0.000175668
0.000174235
0.00017156
0.0001681
0.000163683
0.000157605
0.00015184
0.000144301
0.000135064
0.000128185
0.000115998
8.07942e-05
7.83311e-07
2.84571e-06
4.98753e-06
7.37951e-06
1.03357e-05
1.40113e-05
1.84861e-05
2.36611e-05
2.86641e-05
3.39286e-05
3.93969e-05
4.48911e-05
5.06979e-05
5.66738e-05
6.28239e-05
6.91053e-05
7.51093e-05
8.09476e-05
8.70973e-05
9.35253e-05
0.000100209
0.000107107
0.000114129
0.000120805
0.000127255
0.000132808
0.000138348
0.000143747
0.000148954
0.000153783
0.000158198
0.000162078
0.000165499
0.000169153
0.000172224
0.000174429
0.000175759
0.000176208
0.000175519
0.00017391
0.000171096
0.000167493
0.000162965
0.000156805
0.000150985
0.000143394
0.000134151
0.000127268
0.000115119
8.00948e-05
1.12886e-06
3.812e-06
6.32602e-06
9.34446e-06
1.32104e-05
1.79181e-05
2.30579e-05
2.79801e-05
3.32808e-05
3.88446e-05
4.44877e-05
5.01267e-05
5.59851e-05
6.19813e-05
6.80925e-05
7.4265e-05
8.01119e-05
8.59072e-05
9.19972e-05
9.83544e-05
0.000104951
0.000111711
0.000118559
0.000125123
0.000132012
0.000137765
0.000142958
0.00014808
0.000152901
0.000157369
0.000161406
0.000164832
0.00016763
0.000170852
0.000173453
0.000175233
0.000176209
0.000176205
0.000175145
0.000173168
0.000170109
0.000166189
0.00016142
0.000155077
0.00014914
0.000141412
0.000132101
0.000125189
0.000113151
7.85585e-05
2.19134e-06
6.18657e-06
9.91636e-06
1.48648e-05
2.04141e-05
2.54625e-05
3.07975e-05
3.63685e-05
4.20492e-05
4.78504e-05
5.35445e-05
5.9154e-05
6.4896e-05
7.07487e-05
7.66319e-05
8.25028e-05
8.80729e-05
9.37226e-05
9.96692e-05
0.000105859
0.000112223
0.000118701
0.000125142
0.000131513
0.00013817
0.000145086
0.000149858
0.000154407
0.000158664
0.000162559
0.000165889
0.000168634
0.000170866
0.000172957
0.000174947
0.000176192
0.000176557
0.000175959
0.000174355
0.000171925
0.000168415
0.000164085
0.000158934
0.000152353
0.000146223
0.000138278
0.000129015
0.000122082
0.000110246
7.63196e-05
6.76289e-06
1.47973e-05
2.21254e-05
2.83267e-05
3.43894e-05
4.02819e-05
4.58544e-05
5.16048e-05
5.71355e-05
6.26093e-05
6.77745e-05
7.29551e-05
7.81413e-05
8.33105e-05
8.86021e-05
9.40402e-05
9.91624e-05
0.000104539
0.000110148
0.000115952
0.000121815
0.000127727
0.000133629
0.000139596
0.000145934
0.000152448
0.000158677
0.000162479
0.000165881
0.000168814
0.000171284
0.000173266
0.000174578
0.000175216
0.000176441
0.000176905
0.000176485
0.000175166
0.000172942
0.000169935
0.000165829
0.000161036
0.000155457
0.000148638
0.000142276
0.000134099
0.000124894
0.000117957
0.000106498
7.35031e-05
6.97948e-05
5.47564e-05
5.2654e-05
5.46349e-05
5.80094e-05
6.20197e-05
6.62311e-05
7.09088e-05
7.54444e-05
7.99138e-05
8.46101e-05
8.97858e-05
9.52733e-05
9.98622e-05
0.000104317
0.000108819
0.000113352
0.000118111
0.000123068
0.000128169
0.000133267
0.000138398
0.000143526
0.000148946
0.000154755
0.000160709
0.000166576
0.000171551
0.000173861
0.000175813
0.000177108
0.000177874
0.000178134
0.000177839
0.000177277
0.000176896
0.000175628
0.000173569
0.000170594
0.000166851
0.000162136
0.00015687
0.000150893
0.000143812
0.000137238
0.000128864
0.000119828
0.000112968
0.000101988
7.02746e-05
0.00015699
0.000109342
9.31198e-05
8.78103e-05
8.66999e-05
8.8758e-05
9.08436e-05
9.35601e-05
9.67013e-05
0.000100271
0.000104415
0.000108844
0.00011343
0.000118195
0.000122896
0.000126111
0.000129769
0.000133623
0.000137653
0.00014181
0.000145824
0.000149959
0.000154199
0.000158671
0.000163722
0.000168814
0.000173796
0.000178587
0.000181739
0.000182287
0.000182357
0.000181945
0.000181017
0.000179574
0.000177557
0.000175662
0.000173572
0.000170662
0.000166938
0.000162514
0.000157258
0.000151546
0.000145137
0.000137874
0.000131136
0.000122631
0.000113899
0.000107211
9.68614e-05
6.67668e-05
8.45694e-05
0.000117196
0.000112296
0.000110965
0.000110279
0.000112466
0.000114316
0.000116239
0.000118341
0.000121294
0.000124536
0.000127937
0.000131475
0.000135056
0.000138674
0.000142937
0.000145705
0.000148655
0.000151711
0.000154809
0.000157932
0.000161042
0.000164124
0.000167413
0.00017166
0.000175726
0.000179655
0.00018335
0.000186726
0.000187452
0.000186117
0.000184353
0.000182225
0.000179714
0.000176672
0.00017322
0.000169922
0.000166188
0.000161737
0.000156728
0.000150995
0.000144914
0.000138213
0.000130882
0.000124052
0.000115507
0.000107259
0.000100824
9.12925e-05
6.28738e-05
1.97328e-05
8.17901e-05
9.18288e-05
0.000105647
0.000115348
0.000121812
0.000127113
0.000130659
0.000133738
0.000137368
0.000140581
0.000143606
0.000146557
0.000149419
0.000152296
0.000156442
0.00016053
0.000162459
0.000164434
0.00016642
0.000168321
0.000170225
0.000172133
0.000173992
0.000177311
0.000180309
0.000183117
0.000185537
0.000187744
0.000189536
0.00018729
0.000184374
0.000181056
0.000177464
0.000173454
0.000169174
0.000164639
0.000160066
0.000155005
0.000149493
0.000143416
0.000137057
0.000130149
0.000122869
0.000116054
0.000107663
0.000100045
9.39957e-05
8.54205e-05
5.79073e-05
3.49571e-06
3.00161e-05
5.14766e-05
7.47529e-05
9.52317e-05
0.000110925
0.000122459
0.000130774
0.000138554
0.000145546
0.000151327
0.00015593
0.000159886
0.000163381
0.000166332
0.000169608
0.000173185
0.000174063
0.00017468
0.000175291
0.000175881
0.000176438
0.000176942
0.000177382
0.000179279
0.000181236
0.000182964
0.000184268
0.000185317
0.000186014
0.000184774
0.000180845
0.000176681
0.000172261
0.000167645
0.00016271
0.000157604
0.000152276
0.000146725
0.000140862
0.000134542
0.000128051
0.000121144
0.000114092
0.00010738
9.93085e-05
9.24517e-05
8.6897e-05
7.92977e-05
5.29241e-05
4.70569e-07
5.97523e-06
1.82162e-05
3.88577e-05
6.21209e-05
8.26557e-05
0.000100353
0.000114502
0.000126018
0.000135512
0.000145183
0.000152722
0.000158897
0.000164182
0.00016868
0.000172798
0.000176521
0.000177151
0.00017707
0.000176908
0.0001767
0.000176426
0.000176121
0.000175755
0.000176384
0.000177387
0.000178054
0.000178457
0.000178601
0.000178416
0.00017778
0.000173265
0.000168495
0.000163635
0.000158545
0.000153329
0.0001479
0.00014238
0.000136631
0.00013065
0.000124328
0.000117883
0.00011112
0.000104412
9.79475e-05
9.04078e-05
8.44265e-05
7.94538e-05
7.18026e-05
4.78547e-05
3.5354e-07
1.97124e-06
4.97403e-06
1.26421e-05
2.68027e-05
4.7271e-05
6.75327e-05
8.36157e-05
9.87775e-05
0.000111719
0.00012248
0.000131809
0.000139914
0.000146738
0.000152757
0.000159543
0.000164445
0.000166317
0.000167202
0.000167713
0.000167889
0.000167801
0.000167541
0.000167102
0.00016696
0.000167197
0.000167142
0.00016683
0.000166269
0.000165506
0.000164512
0.000160198
0.000155297
0.000150318
0.000145207
0.000139989
0.000134679
0.00012919
0.000123627
0.000118015
0.000112154
0.000105981
9.95921e-05
9.33924e-05
8.73384e-05
8.05618e-05
7.55518e-05
7.1317e-05
6.33861e-05
4.2442e-05
2.1222e-07
9.36377e-07
2.00688e-06
3.84314e-06
7.81786e-06
1.65762e-05
2.84372e-05
4.33108e-05
5.9439e-05
7.46961e-05
8.85081e-05
0.000100437
0.000111002
0.000119378
0.000125449
0.000131108
0.000135607
0.00013913
0.000142065
0.000144418
0.000146106
0.000147288
0.000148106
0.000148602
0.000148732
0.000148594
0.000148232
0.000147662
0.000146863
0.00014593
0.000144656
0.000140374
0.000135975
0.000131459
0.00012679
0.000122033
0.000117166
0.000112209
0.000107161
0.00010206
9.68705e-05
9.17081e-05
8.62199e-05
8.07192e-05
7.53136e-05
6.96001e-05
6.56269e-05
6.14694e-05
5.42391e-05
3.66197e-05
1.31981e-07
5.2061e-07
1.05502e-06
1.76343e-06
2.87292e-06
4.65668e-06
7.81714e-06
1.35584e-05
2.24641e-05
3.23154e-05
4.33426e-05
5.46125e-05
6.53716e-05
7.42316e-05
8.21891e-05
8.93427e-05
9.5702e-05
0.000101099
0.000105931
0.000109958
0.000113265
0.000115997
0.000118254
0.000120025
0.000120977
0.000121115
0.000121025
0.000120745
0.000120274
0.000119643
0.000117115
0.000113933
0.000110586
0.000107136
0.00010344
9.96347e-05
9.56898e-05
9.16286e-05
8.74711e-05
8.32514e-05
7.89511e-05
7.46502e-05
7.02231e-05
6.59662e-05
6.16924e-05
5.71833e-05
5.40335e-05
5.02539e-05
4.46309e-05
3.05498e-05
8.61423e-08
3.18491e-07
6.1915e-07
9.93986e-07
1.44336e-06
2.0132e-06
2.78748e-06
3.94905e-06
5.80316e-06
8.83918e-06
1.35113e-05
1.96454e-05
2.66726e-05
3.31581e-05
3.9768e-05
4.62357e-05
5.24674e-05
5.83528e-05
6.3867e-05
6.89486e-05
7.35326e-05
7.7576e-05
8.11855e-05
8.42387e-05
8.58388e-05
8.68553e-05
8.76359e-05
8.81581e-05
8.74544e-05
8.62148e-05
8.47809e-05
8.31325e-05
8.12455e-05
7.91754e-05
7.68036e-05
7.43384e-05
7.16683e-05
6.88182e-05
6.58606e-05
6.28062e-05
5.96652e-05
5.64806e-05
5.32529e-05
5.00942e-05
4.69843e-05
4.39283e-05
4.1807e-05
3.88798e-05
3.50543e-05
2.43976e-05
5.78422e-08
2.04313e-07
3.82525e-07
5.91223e-07
8.31514e-07
1.10686e-06
1.4095e-06
1.78084e-06
2.2505e-06
2.88533e-06
3.76558e-06
4.93827e-06
6.60183e-06
8.86123e-06
1.17494e-05
1.52171e-05
1.91348e-05
2.33492e-05
2.77228e-05
3.19986e-05
3.61431e-05
4.00115e-05
4.35558e-05
4.60078e-05
4.79518e-05
4.95215e-05
5.07419e-05
5.16014e-05
5.21725e-05
5.24371e-05
5.25076e-05
5.23232e-05
5.18653e-05
5.11892e-05
5.02266e-05
4.90807e-05
4.76958e-05
4.61776e-05
4.45166e-05
4.26965e-05
4.07968e-05
3.88251e-05
3.68486e-05
3.48757e-05
3.30454e-05
3.13456e-05
3.00789e-05
2.83714e-05
2.59495e-05
1.84981e-05
3.91299e-08
1.34184e-07
2.45816e-07
3.72268e-07
5.11886e-07
6.63906e-07
8.29068e-07
1.00557e-06
1.192e-06
1.40572e-06
1.62657e-06
1.87542e-06
2.18503e-06
2.58313e-06
3.11735e-06
3.83315e-06
4.78729e-06
6.02613e-06
7.5485e-06
9.32815e-06
1.12735e-05
1.32927e-05
1.52845e-05
1.71995e-05
1.89922e-05
2.06465e-05
2.21221e-05
2.3425e-05
2.45339e-05
2.54856e-05
2.62956e-05
2.68786e-05
2.73032e-05
2.75103e-05
2.754e-05
2.74018e-05
2.70687e-05
2.65982e-05
2.59903e-05
2.52681e-05
2.44851e-05
2.36094e-05
2.27296e-05
2.18465e-05
2.10966e-05
2.04167e-05
1.99697e-05
1.94299e-05
1.80289e-05
1.30183e-05
2.63527e-08
8.87462e-08
1.60596e-07
2.40656e-07
3.27452e-07
4.19595e-07
5.15997e-07
6.16067e-07
7.19776e-07
8.20322e-07
9.01475e-07
9.81366e-07
1.06105e-06
1.14361e-06
1.239e-06
1.34486e-06
1.48801e-06
1.66477e-06
1.94265e-06
2.30784e-06
2.75629e-06
3.29509e-06
3.91243e-06
4.60374e-06
5.35962e-06
6.14824e-06
6.94758e-06
7.76088e-06
8.52795e-06
9.26926e-06
9.97707e-06
1.0604e-05
1.11548e-05
1.16257e-05
1.20109e-05
1.22906e-05
1.24937e-05
1.26119e-05
1.26381e-05
1.25903e-05
1.25032e-05
1.2373e-05
1.22596e-05
1.2154e-05
1.21137e-05
1.21204e-05
1.23296e-05
1.23935e-05
1.15511e-05
8.30775e-06
1.74959e-08
5.833e-08
1.04933e-07
1.56562e-07
2.12258e-07
2.70953e-07
3.31585e-07
3.93171e-07
4.52735e-07
5.02908e-07
5.47703e-07
5.85998e-07
6.15205e-07
6.3628e-07
6.50914e-07
6.58406e-07
6.58257e-07
6.89294e-07
7.4046e-07
7.93918e-07
8.64881e-07
9.40728e-07
1.03728e-06
1.14352e-06
1.28092e-06
1.4425e-06
1.62788e-06
1.84161e-06
2.07702e-06
2.337e-06
2.61719e-06
2.91959e-06
3.21789e-06
3.50689e-06
3.81682e-06
4.10676e-06
4.38276e-06
4.63331e-06
4.85517e-06
5.07212e-06
5.27516e-06
5.47005e-06
5.68657e-06
5.93389e-06
6.22613e-06
6.55767e-06
6.99649e-06
7.20218e-06
6.68041e-06
4.61729e-06
1.13206e-08
3.75973e-08
6.75656e-08
1.00837e-07
1.36852e-07
1.74912e-07
2.14239e-07
2.51144e-07
2.84966e-07
3.15258e-07
3.40956e-07
3.61052e-07
3.74682e-07
3.81029e-07
3.79329e-07
3.69011e-07
3.61697e-07
3.68805e-07
3.72646e-07
3.73057e-07
3.69492e-07
3.67081e-07
3.61828e-07
3.52038e-07
3.41981e-07
3.33654e-07
3.21625e-07
3.19892e-07
3.31654e-07
3.94301e-07
4.62247e-07
5.53479e-07
6.50025e-07
7.66243e-07
8.86036e-07
1.02096e-06
1.15478e-06
1.31497e-06
1.47134e-06
1.63026e-06
1.796e-06
2.02597e-06
2.28805e-06
2.58377e-06
2.91273e-06
3.26146e-06
3.61517e-06
3.70801e-06
3.40646e-06
2.1484e-06
7.01282e-09
2.33506e-08
4.21309e-08
6.31851e-08
8.57518e-08
1.09072e-07
1.32522e-07
1.55257e-07
1.76374e-07
1.94983e-07
2.10226e-07
2.21258e-07
2.27315e-07
2.27675e-07
2.21651e-07
2.13482e-07
2.14444e-07
2.11878e-07
2.05475e-07
1.95821e-07
1.81693e-07
1.62604e-07
1.38149e-07
1.07973e-07
7.24531e-08
7.69233e-08
8.329e-08
9.01802e-08
9.8048e-08
1.1165e-07
1.2862e-07
1.48717e-07
1.77881e-07
2.10679e-07
2.50926e-07
2.99176e-07
3.51067e-07
4.15969e-07
4.85768e-07
5.57754e-07
6.39671e-07
7.24734e-07
8.09587e-07
1.01167e-06
1.24686e-06
1.47338e-06
1.63055e-06
1.67169e-06
1.45318e-06
7.74517e-07
3.92888e-09
1.32363e-08
2.40689e-08
3.62739e-08
4.95497e-08
6.34713e-08
7.75193e-08
9.11048e-08
1.03601e-07
1.14359e-07
1.22733e-07
1.28097e-07
1.29823e-07
1.27319e-07
1.25801e-07
1.26359e-07
1.2419e-07
1.1899e-07
1.10425e-07
9.81281e-08
8.16491e-08
6.05041e-08
3.41694e-08
3.32301e-08
3.30863e-08
3.2657e-08
3.21447e-08
3.17912e-08
3.19149e-08
3.39247e-08
3.82621e-08
4.45333e-08
5.29046e-08
6.48171e-08
8.02896e-08
9.83676e-08
1.18988e-07
1.44413e-07
1.73075e-07
2.03589e-07
2.35614e-07
2.67829e-07
2.98379e-07
3.4033e-07
4.67938e-07
5.74427e-07
6.54214e-07
6.33442e-07
4.66887e-07
2.27848e-07
1.81285e-09
6.41067e-09
1.20117e-08
1.84835e-08
2.56006e-08
3.30657e-08
4.05361e-08
4.76294e-08
5.39333e-08
5.90153e-08
6.24266e-08
6.37261e-08
6.5315e-08
6.74176e-08
6.79003e-08
6.65225e-08
6.30286e-08
5.71298e-08
4.85024e-08
3.6788e-08
2.16193e-08
1.75265e-08
1.64758e-08
1.5111e-08
1.34649e-08
1.16094e-08
9.77511e-09
8.38684e-09
7.26698e-09
6.78212e-09
7.36839e-09
9.22533e-09
1.23853e-08
1.72406e-08
2.39261e-08
3.21773e-08
4.18683e-08
5.27414e-08
6.44613e-08
7.65789e-08
8.85684e-08
9.92108e-08
1.07343e-07
1.1117e-07
1.57174e-07
2.05283e-07
2.13609e-07
1.8055e-07
1.17087e-07
5.52871e-08
4.80802e-10
2.09409e-09
4.3658e-09
6.9975e-09
9.81112e-09
1.26255e-08
1.52685e-08
1.75347e-08
2.00253e-08
2.25609e-08
2.46737e-08
2.62024e-08
2.69797e-08
2.68408e-08
2.56116e-08
2.30867e-08
1.90273e-08
1.31889e-08
8.70743e-09
8.30185e-09
7.66708e-09
6.81957e-09
5.6898e-09
4.31952e-09
2.75093e-09
9.61052e-10
5.00562e-11
5.29197e-11
5.73139e-11
6.35652e-11
7.34719e-11
9.55334e-11
1.20105e-10
1.46773e-10
3.2277e-09
7.24917e-09
1.19323e-08
1.70661e-08
2.22042e-08
2.67585e-08
3.06924e-08
3.33875e-08
3.47017e-08
3.32714e-08
3.17834e-08
4.43498e-08
4.24499e-08
3.22366e-08
1.89196e-08
8.60111e-09
1.3633e-11
2.24857e-10
4.83214e-10
6.56519e-10
7.60214e-10
7.55148e-10
6.24819e-10
6.38141e-10
7.56048e-10
8.64154e-10
9.54311e-10
1.01773e-09
1.04577e-09
1.03241e-09
9.74548e-10
8.53144e-10
6.49322e-10
3.51033e-10
1.094e-11
1.08547e-11
1.05997e-11
1.01699e-11
9.58201e-12
8.8931e-12
8.19065e-12
7.59171e-12
7.26026e-12
7.34372e-12
7.91675e-12
9.05551e-12
1.0827e-11
1.31851e-11
1.60282e-11
1.92518e-11
2.2707e-11
2.61884e-11
2.94518e-11
3.22319e-11
3.42198e-11
3.51367e-11
3.47866e-11
1.1062e-09
2.0479e-09
2.48902e-09
2.48422e-09
2.13842e-09
1.56461e-09
1.00821e-09
5.29147e-10
3.05124e-10
)
;

boundaryField
{
    AXIS
    {
        type            empty;
    }
    OUTLET
    {
        type            calculated;
        value           nonuniform List<scalar> 
25
(
8.07942e-05
8.00948e-05
7.85585e-05
7.63196e-05
7.35031e-05
7.02746e-05
6.67668e-05
6.28738e-05
5.79073e-05
5.29241e-05
4.78547e-05
4.2442e-05
3.66197e-05
3.05498e-05
2.43976e-05
1.84981e-05
1.30183e-05
8.30775e-06
4.61729e-06
2.1484e-06
7.74517e-07
2.27848e-07
5.52871e-08
8.60111e-09
3.05124e-10
)
;
    }
    COFLOW
    {
        type            calculated;
        value           uniform 0;
    }
    PILOT
    {
        type            calculated;
        value           uniform 7.20683e-18;
    }
    FUEL
    {
        type            calculated;
        value           uniform 0;
    }
    WALL
    {
        type            calculated;
        value           nonuniform List<scalar> 
50
(
1.3633e-11
2.24857e-10
4.83214e-10
6.56519e-10
7.60214e-10
7.55148e-10
6.24819e-10
6.38141e-10
7.56048e-10
8.64154e-10
9.54311e-10
1.01773e-09
1.04577e-09
1.03241e-09
9.74548e-10
8.53144e-10
6.49322e-10
3.51033e-10
1.094e-11
1.08547e-11
1.05997e-11
1.01699e-11
9.58201e-12
8.8931e-12
8.19065e-12
7.59171e-12
7.26026e-12
7.34372e-12
7.91675e-12
9.05551e-12
1.0827e-11
1.31851e-11
1.60282e-11
1.92518e-11
2.2707e-11
2.61884e-11
2.94518e-11
3.22319e-11
3.42198e-11
3.51367e-11
3.47866e-11
1.1062e-09
2.0479e-09
2.48902e-09
2.48422e-09
2.13842e-09
1.56461e-09
1.00821e-09
5.29147e-10
3.05124e-10
)
;
    }
    front
    {
        type            wedge;
    }
    back
    {
        type            wedge;
    }
}


// ************************************************************************* //
