/*--------------------------------*- C++ -*----------------------------------*\
| =========                 |                                                 |
| \\      /  F ield         | OpenFOAM: The Open Source CFD Toolbox           |
|  \\    /   O peration     | Version:  2.4.x                                 |
|   \\  /    A nd           | Web:      www.OpenFOAM.org                      |
|    \\/     M anipulation  |                                                 |
\*---------------------------------------------------------------------------*/
FoamFile
{
    version     2.0;
    format      ascii;
    class       volScalarField;
    location    "0.1";
    object      CH3CHO;
}
// * * * * * * * * * * * * * * * * * * * * * * * * * * * * * * * * * * * * * //

dimensions      [0 0 0 0 0 0 0];

internalField   nonuniform List<scalar> 
1250
(
1.78644e-08
6.29994e-08
1.04647e-07
1.39345e-07
1.68788e-07
1.92792e-07
2.11754e-07
2.26345e-07
2.43128e-07
2.88429e-07
3.37693e-07
3.908e-07
4.45944e-07
5.00781e-07
5.54164e-07
6.0688e-07
6.58583e-07
7.10903e-07
7.59877e-07
8.05818e-07
8.47223e-07
8.85091e-07
9.18328e-07
9.51546e-07
9.95663e-07
1.03928e-06
1.072e-06
1.09165e-06
1.10036e-06
1.09726e-06
1.08335e-06
1.06013e-06
1.0263e-06
9.81018e-07
9.28172e-07
8.6893e-07
8.05799e-07
7.4021e-07
6.74159e-07
6.08364e-07
5.44252e-07
4.83018e-07
4.26002e-07
3.71182e-07
3.24043e-07
2.76746e-07
2.37283e-07
2.17479e-07
1.97083e-07
1.23534e-07
2.12521e-08
7.12243e-08
1.12972e-07
1.46461e-07
1.73341e-07
1.93991e-07
2.09048e-07
2.20065e-07
2.58618e-07
3.05364e-07
3.55578e-07
4.09317e-07
4.64669e-07
5.18856e-07
5.71975e-07
6.23326e-07
6.74215e-07
7.252e-07
7.73074e-07
8.17279e-07
8.57613e-07
8.9391e-07
9.2556e-07
9.57198e-07
9.92165e-07
1.03524e-06
1.06641e-06
1.08543e-06
1.09307e-06
1.08913e-06
1.07474e-06
1.05087e-06
1.01735e-06
9.72204e-07
9.19485e-07
8.60644e-07
7.9802e-07
7.33101e-07
6.67623e-07
6.02632e-07
5.39169e-07
4.78923e-07
4.22356e-07
3.68307e-07
3.2162e-07
2.74886e-07
2.35744e-07
2.1622e-07
1.96183e-07
1.22582e-07
3.21871e-08
9.42739e-08
1.34162e-07
1.61985e-07
1.79782e-07
1.89453e-07
2.07081e-07
2.51082e-07
2.98343e-07
3.46944e-07
3.99101e-07
4.53518e-07
5.07872e-07
5.60874e-07
6.1204e-07
6.60621e-07
7.09147e-07
7.571e-07
8.01754e-07
8.42695e-07
8.79892e-07
9.12729e-07
9.40978e-07
9.68606e-07
9.91745e-07
1.02655e-06
1.05505e-06
1.07244e-06
1.07787e-06
1.07214e-06
1.05672e-06
1.03128e-06
9.979e-07
9.5331e-07
9.00721e-07
8.42685e-07
7.81053e-07
7.17651e-07
6.53177e-07
5.90075e-07
5.27761e-07
4.69563e-07
4.13993e-07
3.61604e-07
3.15925e-07
2.70492e-07
2.32666e-07
2.13729e-07
1.94667e-07
1.20336e-07
6.67388e-08
1.43162e-07
1.67988e-07
1.70851e-07
1.81824e-07
2.26188e-07
2.73529e-07
3.22942e-07
3.72668e-07
4.2235e-07
4.75252e-07
5.27675e-07
5.78861e-07
6.28338e-07
6.74877e-07
7.18164e-07
7.62406e-07
8.05096e-07
8.44523e-07
8.80353e-07
9.11994e-07
9.39441e-07
9.61842e-07
9.83902e-07
1.00157e-06
1.01338e-06
1.03904e-06
1.05285e-06
1.05525e-06
1.04751e-06
1.02934e-06
1.0026e-06
9.68445e-07
9.25192e-07
8.732e-07
8.1627e-07
7.56312e-07
6.94446e-07
6.32082e-07
5.71023e-07
5.11156e-07
4.5518e-07
4.0171e-07
3.51506e-07
3.07773e-07
2.64115e-07
2.27641e-07
2.09363e-07
1.91611e-07
1.17015e-07
2.03837e-07
2.32484e-07
1.98426e-07
2.49046e-07
3.0096e-07
3.52711e-07
4.01384e-07
4.51364e-07
4.98203e-07
5.43007e-07
5.90836e-07
6.36846e-07
6.80293e-07
7.20723e-07
7.58643e-07
7.94206e-07
8.31489e-07
8.66877e-07
8.98426e-07
9.26496e-07
9.50156e-07
9.69894e-07
9.85494e-07
9.99443e-07
1.01036e-06
1.01584e-06
1.01821e-06
1.02788e-06
1.02647e-06
1.01489e-06
9.9446e-07
9.66134e-07
9.30441e-07
8.88872e-07
8.37956e-07
7.82559e-07
7.24172e-07
6.64503e-07
6.04721e-07
5.46322e-07
4.89603e-07
4.36096e-07
3.85488e-07
3.37945e-07
2.9661e-07
2.55029e-07
2.21073e-07
2.02866e-07
1.872e-07
1.12607e-07
6.16119e-07
4.78457e-07
5.09298e-07
5.42697e-07
5.79114e-07
6.16431e-07
6.46739e-07
6.77499e-07
7.03438e-07
7.27381e-07
7.54928e-07
7.81593e-07
8.06201e-07
8.34247e-07
8.60407e-07
8.84516e-07
9.12162e-07
9.36418e-07
9.57579e-07
9.75621e-07
9.89392e-07
9.99627e-07
1.00641e-06
1.01184e-06
1.01432e-06
1.01243e-06
1.00548e-06
9.97268e-07
9.91345e-07
9.76463e-07
9.52649e-07
9.21794e-07
8.85003e-07
8.43261e-07
7.9616e-07
7.41849e-07
6.85722e-07
6.2848e-07
5.71981e-07
5.16826e-07
4.63225e-07
4.13165e-07
3.65582e-07
3.21407e-07
2.82482e-07
2.43569e-07
2.12213e-07
1.95017e-07
1.81131e-07
1.07448e-07
8.81835e-07
1.08877e-06
1.02718e-06
9.79311e-07
9.55354e-07
9.60947e-07
9.52571e-07
9.47884e-07
9.45104e-07
9.4634e-07
9.51876e-07
9.57172e-07
9.61248e-07
9.64773e-07
9.68297e-07
9.7922e-07
9.93305e-07
1.00466e-06
1.01344e-06
1.01968e-06
1.02215e-06
1.02233e-06
1.02023e-06
1.0157e-06
1.00945e-06
9.99563e-07
9.85691e-07
9.67942e-07
9.49789e-07
9.30311e-07
9.03638e-07
8.70954e-07
8.33169e-07
7.91048e-07
7.45837e-07
6.95616e-07
6.41842e-07
5.87886e-07
5.34289e-07
4.82671e-07
4.32796e-07
3.86549e-07
3.42528e-07
3.01605e-07
2.65752e-07
2.29679e-07
2.0144e-07
1.85116e-07
1.72687e-07
1.01334e-07
1.81814e-07
9.67554e-07
1.17665e-06
1.2209e-06
1.21559e-06
1.21972e-06
1.20376e-06
1.18264e-06
1.1604e-06
1.14352e-06
1.12741e-06
1.11161e-06
1.09633e-06
1.08149e-06
1.06701e-06
1.05669e-06
1.05721e-06
1.0557e-06
1.05227e-06
1.04687e-06
1.03962e-06
1.03039e-06
1.01929e-06
1.00637e-06
9.92055e-07
9.74181e-07
9.53414e-07
9.29718e-07
9.03143e-07
8.76976e-07
8.47436e-07
8.13007e-07
7.74599e-07
7.32866e-07
6.88938e-07
6.43274e-07
5.9345e-07
5.42602e-07
4.92897e-07
4.45207e-07
3.99492e-07
3.5683e-07
3.16251e-07
2.79357e-07
2.46379e-07
2.13743e-07
1.88336e-07
1.73931e-07
1.62097e-07
9.49125e-08
1.80597e-08
4.62571e-07
7.97389e-07
1.04103e-06
1.1729e-06
1.24115e-06
1.27279e-06
1.27351e-06
1.26224e-06
1.24456e-06
1.22279e-06
1.19905e-06
1.17461e-06
1.14977e-06
1.12541e-06
1.10616e-06
1.09081e-06
1.07879e-06
1.06532e-06
1.05069e-06
1.03447e-06
1.01706e-06
9.98635e-07
9.78617e-07
9.57012e-07
9.3262e-07
9.06239e-07
8.77574e-07
8.47272e-07
8.15025e-07
7.83398e-07
7.48261e-07
7.10028e-07
6.69429e-07
6.2729e-07
5.84104e-07
5.40353e-07
4.94196e-07
4.48522e-07
4.04734e-07
3.62917e-07
3.24663e-07
2.88165e-07
2.55122e-07
2.25531e-07
1.96079e-07
1.74369e-07
1.6086e-07
1.50116e-07
8.99935e-08
1.65813e-09
1.20965e-07
3.14092e-07
5.85118e-07
8.23487e-07
9.94149e-07
1.10662e-06
1.16884e-06
1.20797e-06
1.22228e-06
1.22431e-06
1.21349e-06
1.19627e-06
1.17538e-06
1.15094e-06
1.12171e-06
1.09366e-06
1.071e-06
1.04879e-06
1.02626e-06
1.00303e-06
9.78857e-07
9.5408e-07
9.28448e-07
9.01304e-07
8.72575e-07
8.4259e-07
8.11161e-07
7.78724e-07
7.45264e-07
7.11473e-07
6.7667e-07
6.39734e-07
6.01337e-07
5.61873e-07
5.21988e-07
4.81889e-07
4.42233e-07
4.01527e-07
3.62233e-07
3.24902e-07
2.90792e-07
2.58364e-07
2.29112e-07
2.03057e-07
1.76929e-07
1.58018e-07
1.46414e-07
1.36331e-07
8.48611e-08
4.30774e-10
2.8533e-08
8.32951e-08
2.11188e-07
4.03877e-07
5.99568e-07
7.65886e-07
8.88923e-07
9.70087e-07
1.01834e-06
1.05942e-06
1.07813e-06
1.08593e-06
1.08482e-06
1.07515e-06
1.05275e-06
1.02827e-06
1.00499e-06
9.80655e-07
9.55705e-07
9.30321e-07
9.0408e-07
8.77858e-07
8.5105e-07
8.22048e-07
7.91547e-07
7.60282e-07
7.28469e-07
6.96117e-07
6.63361e-07
6.30178e-07
5.97129e-07
5.62786e-07
5.27456e-07
4.91786e-07
4.55977e-07
4.20349e-07
3.85072e-07
3.51144e-07
3.17188e-07
2.84537e-07
2.54974e-07
2.26945e-07
2.01614e-07
1.78495e-07
1.56212e-07
1.40972e-07
1.30809e-07
1.23092e-07
7.87979e-08
9.56671e-10
1.03211e-08
2.9913e-08
5.99606e-08
1.27696e-07
2.45273e-07
3.87705e-07
5.11658e-07
6.18839e-07
7.02534e-07
7.68885e-07
8.13399e-07
8.47451e-07
8.68632e-07
8.74667e-07
8.72861e-07
8.6718e-07
8.56876e-07
8.42254e-07
8.24978e-07
8.05681e-07
7.84563e-07
7.6259e-07
7.39657e-07
7.13371e-07
6.84531e-07
6.55124e-07
6.25417e-07
5.95519e-07
5.65673e-07
5.35689e-07
5.06103e-07
4.7594e-07
4.45333e-07
4.14524e-07
3.83886e-07
3.5339e-07
3.23931e-07
2.95084e-07
2.67456e-07
2.40672e-07
2.15374e-07
1.92001e-07
1.71167e-07
1.51947e-07
1.3347e-07
1.21535e-07
1.1317e-07
1.0868e-07
7.16123e-08
9.50467e-10
5.17068e-09
1.27483e-08
2.34895e-08
4.00994e-08
6.83238e-08
1.21849e-07
1.96512e-07
2.79409e-07
3.58723e-07
4.31292e-07
4.93461e-07
5.45164e-07
5.89375e-07
6.11894e-07
6.27716e-07
6.36453e-07
6.39552e-07
6.38819e-07
6.34423e-07
6.26932e-07
6.16445e-07
6.04023e-07
5.89769e-07
5.71474e-07
5.48209e-07
5.24415e-07
5.00299e-07
4.75848e-07
4.51651e-07
4.27373e-07
4.03505e-07
3.79154e-07
3.54812e-07
3.30287e-07
3.05805e-07
2.81617e-07
2.5817e-07
2.35186e-07
2.13451e-07
1.92409e-07
1.72823e-07
1.54138e-07
1.37905e-07
1.22837e-07
1.08616e-07
9.96107e-08
9.42769e-08
9.31134e-08
6.29977e-08
7.11227e-10
2.97925e-09
6.46029e-09
1.08438e-08
1.64964e-08
2.40063e-08
3.48507e-08
5.19181e-08
7.87886e-08
1.19078e-07
1.66015e-07
2.14978e-07
2.62169e-07
2.99633e-07
3.31067e-07
3.57041e-07
3.7887e-07
3.94582e-07
4.07266e-07
4.15794e-07
4.20252e-07
4.20993e-07
4.19278e-07
4.14888e-07
4.0581e-07
3.91608e-07
3.76735e-07
3.61174e-07
3.44897e-07
3.28301e-07
3.12048e-07
2.95395e-07
2.78319e-07
2.61165e-07
2.43634e-07
2.26173e-07
2.0885e-07
1.91767e-07
1.75335e-07
1.59452e-07
1.44205e-07
1.29949e-07
1.16379e-07
1.04238e-07
9.29378e-08
8.34072e-08
7.87254e-08
7.63222e-08
7.64386e-08
5.30841e-08
4.86367e-10
1.83325e-09
3.62235e-09
5.76605e-09
8.12863e-09
1.07227e-08
1.36569e-08
1.72681e-08
2.21681e-08
2.97387e-08
4.15236e-08
5.82077e-08
7.77788e-08
1.00177e-07
1.22845e-07
1.44438e-07
1.64589e-07
1.82678e-07
1.98661e-07
2.12024e-07
2.23184e-07
2.31532e-07
2.37849e-07
2.41588e-07
2.4014e-07
2.35869e-07
2.30666e-07
2.24118e-07
2.16927e-07
2.09059e-07
2.00563e-07
1.91575e-07
1.81999e-07
1.72045e-07
1.6149e-07
1.50943e-07
1.40252e-07
1.29481e-07
1.19022e-07
1.08931e-07
9.91385e-08
8.98305e-08
8.11948e-08
7.33421e-08
6.64561e-08
6.12267e-08
5.90986e-08
5.85298e-08
5.95801e-08
4.21755e-08
3.24437e-10
1.14923e-09
2.14977e-09
3.27466e-09
4.46122e-09
5.64586e-09
6.72665e-09
7.74247e-09
8.68708e-09
9.61581e-09
1.10957e-08
1.40214e-08
1.80474e-08
2.33687e-08
3.00613e-08
3.8007e-08
4.68849e-08
5.62989e-08
6.59877e-08
7.51392e-08
8.38901e-08
9.17559e-08
9.85779e-08
1.03931e-07
1.08065e-07
1.10829e-07
1.12244e-07
1.12583e-07
1.11928e-07
1.10271e-07
1.08059e-07
1.05069e-07
1.01397e-07
9.72912e-08
9.25748e-08
8.75753e-08
8.22569e-08
7.68326e-08
7.13754e-08
6.59125e-08
6.05645e-08
5.54921e-08
5.0921e-08
4.67943e-08
4.35259e-08
4.14785e-08
4.1112e-08
4.22996e-08
4.30231e-08
3.13107e-08
2.10685e-10
7.1955e-10
1.30537e-09
1.9373e-09
2.57487e-09
3.17505e-09
3.69604e-09
4.08783e-09
4.30454e-09
4.33016e-09
4.63693e-09
5.13153e-09
5.67013e-09
6.28919e-09
7.072e-09
8.08012e-09
9.41625e-09
1.11789e-08
1.33636e-08
1.59117e-08
1.90854e-08
2.31506e-08
2.71639e-08
3.0993e-08
3.44846e-08
3.75768e-08
4.01327e-08
4.21506e-08
4.35714e-08
4.45679e-08
4.5146e-08
4.51216e-08
4.48057e-08
4.4005e-08
4.28753e-08
4.14524e-08
3.97038e-08
3.77781e-08
3.57251e-08
3.35988e-08
3.1496e-08
2.94801e-08
2.77156e-08
2.62319e-08
2.5412e-08
2.52078e-08
2.61372e-08
2.83483e-08
2.872e-08
2.10372e-08
1.32376e-10
4.4259e-10
7.89262e-10
1.15383e-09
1.5121e-09
1.83698e-09
2.10019e-09
2.27362e-09
2.32876e-09
2.34259e-09
2.48858e-09
2.586e-09
2.62861e-09
2.61621e-09
2.56099e-09
2.43081e-09
2.26378e-09
2.02635e-09
2.24773e-09
2.76206e-09
3.40976e-09
4.20354e-09
5.12379e-09
6.16098e-09
7.29339e-09
8.4544e-09
9.59305e-09
1.07017e-08
1.1669e-08
1.25468e-08
1.33196e-08
1.39093e-08
1.43448e-08
1.46291e-08
1.47596e-08
1.47199e-08
1.45721e-08
1.43243e-08
1.39666e-08
1.3554e-08
1.3155e-08
1.28242e-08
1.26627e-08
1.26814e-08
1.3064e-08
1.38352e-08
1.54356e-08
1.73093e-08
1.72963e-08
1.24381e-08
7.95307e-11
2.62749e-10
4.64201e-10
6.72782e-10
8.74206e-10
1.05188e-09
1.18782e-09
1.26347e-09
1.29894e-09
1.39552e-09
1.45666e-09
1.47572e-09
1.4465e-09
1.36464e-09
1.22581e-09
1.02275e-09
7.47875e-10
6.62484e-10
7.1688e-10
7.71263e-10
8.46598e-10
9.22921e-10
1.01987e-09
1.12018e-09
1.24864e-09
1.39229e-09
1.54708e-09
1.71639e-09
1.89106e-09
2.07509e-09
2.26743e-09
2.47419e-09
2.67056e-09
2.85328e-09
3.0486e-09
3.2205e-09
3.38222e-09
3.52835e-09
3.66102e-09
3.81836e-09
4.00374e-09
4.24788e-09
4.60891e-09
5.14957e-09
5.88228e-09
6.83135e-09
8.20815e-09
9.3492e-09
9.16627e-09
6.16788e-09
4.47348e-11
1.4695e-10
2.58363e-10
3.72411e-10
4.80561e-10
5.72612e-10
6.37131e-10
7.13708e-10
7.87046e-10
8.39505e-10
8.66203e-10
8.62365e-10
8.23591e-10
7.45544e-10
6.23912e-10
4.55614e-10
3.26629e-10
3.31672e-10
3.32315e-10
3.28228e-10
3.18668e-10
3.09093e-10
2.93307e-10
2.68789e-10
2.38616e-10
2.01985e-10
1.54325e-10
1.03572e-10
6.29602e-11
8.00086e-11
9.9331e-11
1.26849e-10
1.57258e-10
1.96456e-10
2.38549e-10
2.88963e-10
3.40466e-10
4.04989e-10
4.6948e-10
5.37552e-10
6.11119e-10
8.78478e-10
1.24966e-09
1.74156e-09
2.35467e-09
3.06243e-09
3.87994e-09
4.34533e-09
4.16331e-09
2.47433e-09
2.26204e-11
7.42545e-11
1.30182e-10
1.86499e-10
2.46102e-10
3.08249e-10
3.67064e-10
4.19016e-10
4.60354e-10
4.87345e-10
4.96333e-10
4.83713e-10
4.46093e-10
3.80208e-10
2.82838e-10
1.88783e-10
1.87357e-10
1.82247e-10
1.73106e-10
1.61207e-10
1.43906e-10
1.20504e-10
9.03929e-11
5.29897e-11
8.47479e-12
9.24372e-12
1.03467e-11
1.15489e-11
1.29409e-11
1.54157e-11
1.8524e-11
2.22833e-11
2.80859e-11
3.48476e-11
4.3629e-11
5.47472e-11
6.72263e-11
8.39123e-11
1.02673e-10
1.22812e-10
1.47161e-10
1.73597e-10
2.0093e-10
4.79065e-10
8.4432e-10
1.22961e-09
1.55652e-09
1.73559e-09
1.53491e-09
7.52621e-10
1.09782e-11
3.68582e-11
6.65632e-11
9.92521e-11
1.33561e-10
1.67686e-10
1.99479e-10
2.26536e-10
2.46307e-10
2.56163e-10
2.53452e-10
2.3558e-10
1.99969e-10
1.4411e-10
1.10529e-10
1.09589e-10
1.05872e-10
9.90663e-11
8.88218e-11
7.4752e-11
5.63823e-11
3.31934e-11
4.6083e-12
3.45918e-12
3.49826e-12
3.50263e-12
3.49364e-12
3.50015e-12
3.56073e-12
3.88085e-12
4.51442e-12
5.40322e-12
6.59465e-12
8.37048e-12
1.07733e-11
1.36711e-11
1.70945e-11
2.15851e-11
2.68841e-11
3.27514e-11
3.91574e-11
4.58649e-11
5.24376e-11
8.27844e-11
2.57993e-10
4.21395e-10
5.61823e-10
5.76876e-10
4.20573e-10
1.94915e-10
4.67213e-12
1.642e-11
3.03938e-11
4.59201e-11
6.2012e-11
7.74409e-11
9.0802e-11
1.00552e-10
1.05045e-10
1.0255e-10
9.12634e-11
6.93841e-11
5.7288e-11
5.84451e-11
5.79646e-11
5.56084e-11
5.11213e-11
4.42133e-11
3.45567e-11
2.17866e-11
5.52575e-12
1.74889e-12
1.64451e-12
1.50865e-12
1.34465e-12
1.15967e-12
9.77179e-13
8.51009e-13
7.46129e-13
7.03904e-13
7.74759e-13
9.85681e-13
1.34688e-12
1.92332e-12
2.74662e-12
3.78898e-12
5.04462e-12
6.48872e-12
8.083e-12
9.76673e-12
1.14614e-11
1.29899e-11
1.41443e-11
1.46125e-11
7.37331e-11
1.41439e-10
1.65427e-10
1.45609e-10
9.54419e-11
4.49943e-11
1.05685e-12
4.5216e-12
9.0193e-12
1.35815e-11
1.74871e-11
1.99831e-11
2.03112e-11
1.76403e-11
1.75432e-11
1.95849e-11
2.11736e-11
2.21524e-11
2.23586e-11
2.16323e-11
1.98067e-11
1.66831e-11
1.20271e-11
5.59612e-12
8.58171e-13
8.1806e-13
7.54955e-13
6.70854e-13
5.58885e-13
4.23229e-13
2.68034e-13
9.09073e-14
6.13036e-16
6.49738e-16
7.0615e-16
7.86966e-16
9.15411e-16
1.20125e-15
1.52498e-15
1.88287e-15
3.27174e-13
7.60299e-13
1.27267e-12
1.84068e-12
2.41278e-12
2.92049e-12
3.35086e-12
3.6275e-12
3.73063e-12
3.50199e-12
5.25416e-12
2.3601e-11
2.77958e-11
2.29354e-11
1.38697e-11
6.39239e-12
1.88744e-14
1.9724e-13
4.08941e-13
5.17063e-13
5.35391e-13
4.24708e-13
1.67578e-13
6.20982e-14
7.36297e-14
8.42185e-14
9.30616e-14
9.92899e-14
1.02045e-13
1.00727e-13
9.50257e-14
8.30608e-14
6.29768e-14
3.35997e-14
1.32338e-16
1.31215e-16
1.28028e-16
1.22729e-16
1.15534e-16
1.07151e-16
9.86428e-17
9.14239e-17
8.74717e-17
8.85691e-17
9.56363e-17
1.0964e-16
1.31473e-16
1.60667e-16
1.9608e-16
2.3651e-16
2.80163e-16
3.24464e-16
3.66262e-16
4.02045e-16
4.27666e-16
4.39358e-16
4.34497e-16
1.07825e-13
2.01773e-13
2.45236e-13
2.44117e-13
2.09377e-13
1.52586e-13
9.80028e-14
5.12924e-14
2.95644e-14
)
;

boundaryField
{
    AXIS
    {
        type            empty;
    }
    OUTLET
    {
        type            calculated;
        value           nonuniform List<scalar> 
25
(
1.23534e-07
1.22582e-07
1.20336e-07
1.17015e-07
1.12607e-07
1.07448e-07
1.01334e-07
9.49125e-08
8.99935e-08
8.48611e-08
7.87979e-08
7.16123e-08
6.29977e-08
5.30841e-08
4.21755e-08
3.13107e-08
2.10372e-08
1.24381e-08
6.16788e-09
2.47433e-09
7.52621e-10
1.94915e-10
4.49943e-11
6.39239e-12
2.95644e-14
)
;
    }
    COFLOW
    {
        type            calculated;
        value           uniform 0;
    }
    PILOT
    {
        type            calculated;
        value           uniform 3.63459e-24;
    }
    FUEL
    {
        type            calculated;
        value           uniform 0;
    }
    WALL
    {
        type            calculated;
        value           nonuniform List<scalar> 
50
(
1.88744e-14
1.9724e-13
4.08941e-13
5.17063e-13
5.35391e-13
4.24708e-13
1.67578e-13
6.20982e-14
7.36297e-14
8.42185e-14
9.30616e-14
9.92899e-14
1.02045e-13
1.00727e-13
9.50257e-14
8.30608e-14
6.29768e-14
3.35997e-14
1.32338e-16
1.31215e-16
1.28028e-16
1.22729e-16
1.15534e-16
1.07151e-16
9.86428e-17
9.14239e-17
8.74717e-17
8.85691e-17
9.56363e-17
1.0964e-16
1.31473e-16
1.60667e-16
1.9608e-16
2.3651e-16
2.80163e-16
3.24464e-16
3.66262e-16
4.02045e-16
4.27666e-16
4.39358e-16
4.34497e-16
1.07825e-13
2.01773e-13
2.45236e-13
2.44117e-13
2.09377e-13
1.52586e-13
9.80028e-14
5.12924e-14
2.95644e-14
)
;
    }
    front
    {
        type            wedge;
    }
    back
    {
        type            wedge;
    }
}


// ************************************************************************* //
