/*--------------------------------*- C++ -*----------------------------------*\
| =========                 |                                                 |
| \\      /  F ield         | OpenFOAM: The Open Source CFD Toolbox           |
|  \\    /   O peration     | Version:  2.4.x                                 |
|   \\  /    A nd           | Web:      www.OpenFOAM.org                      |
|    \\/     M anipulation  |                                                 |
\*---------------------------------------------------------------------------*/
FoamFile
{
    version     2.0;
    format      ascii;
    class       volScalarField;
    location    "0.1";
    object      CH3O;
}
// * * * * * * * * * * * * * * * * * * * * * * * * * * * * * * * * * * * * * //

dimensions      [0 0 0 0 0 0 0];

internalField   nonuniform List<scalar> 
1250
(
2.59016e-10
9.42578e-10
1.6701e-09
2.4827e-09
3.52723e-09
4.89377e-09
6.63171e-09
8.73752e-09
1.10957e-08
1.35135e-08
1.61224e-08
1.88342e-08
2.15876e-08
2.42259e-08
2.67284e-08
2.90894e-08
3.12254e-08
3.31957e-08
3.49373e-08
3.64733e-08
3.77568e-08
3.88649e-08
3.97743e-08
4.05323e-08
4.09573e-08
4.1021e-08
4.08894e-08
4.04731e-08
3.98854e-08
3.90705e-08
3.80595e-08
3.68768e-08
3.55236e-08
3.40114e-08
3.23373e-08
3.04952e-08
2.85477e-08
2.65402e-08
2.44986e-08
2.24651e-08
2.04523e-08
1.85189e-08
1.66961e-08
1.48809e-08
1.33379e-08
1.17516e-08
1.03038e-08
9.59386e-09
8.86803e-09
6.04676e-09
3.07006e-10
1.0719e-09
1.84171e-09
2.7355e-09
3.91649e-09
5.46648e-09
7.41578e-09
9.6991e-09
1.20819e-08
1.46029e-08
1.72716e-08
2.00253e-08
2.27763e-08
2.53781e-08
2.78495e-08
3.01045e-08
3.21666e-08
3.40544e-08
3.57157e-08
3.7151e-08
3.83716e-08
3.93991e-08
4.02283e-08
4.09201e-08
4.13412e-08
4.13553e-08
4.11291e-08
4.06713e-08
4.00207e-08
3.91564e-08
3.81031e-08
3.68771e-08
3.54884e-08
3.39605e-08
3.22639e-08
3.04096e-08
2.84575e-08
2.64466e-08
2.44032e-08
2.23744e-08
2.03656e-08
1.84453e-08
1.6625e-08
1.48222e-08
1.32855e-08
1.1709e-08
1.02645e-08
9.56031e-09
8.84311e-09
6.01042e-09
4.61721e-10
1.44667e-09
2.35311e-09
3.53487e-09
5.15551e-09
7.21355e-09
9.57999e-09
1.20447e-08
1.46728e-08
1.73401e-08
2.01155e-08
2.28932e-08
2.55645e-08
2.80757e-08
3.03614e-08
3.24164e-08
3.42835e-08
3.59633e-08
3.74182e-08
3.86566e-08
3.97018e-08
4.05515e-08
4.12117e-08
4.17276e-08
4.20988e-08
4.2042e-08
4.16538e-08
4.10883e-08
4.0314e-08
3.934e-08
3.82033e-08
3.68753e-08
3.54152e-08
3.38441e-08
3.20965e-08
3.0215e-08
2.8248e-08
2.62324e-08
2.41796e-08
2.21669e-08
2.01642e-08
1.82695e-08
1.64561e-08
1.46796e-08
1.31583e-08
1.1604e-08
1.0182e-08
9.4873e-09
8.79686e-09
5.92581e-09
9.53762e-10
2.37347e-09
3.81398e-09
5.92878e-09
8.5123e-09
1.11938e-08
1.40188e-08
1.69177e-08
1.97258e-08
2.24516e-08
2.52111e-08
2.78101e-08
3.02081e-08
3.24052e-08
3.43357e-08
3.60148e-08
3.75304e-08
3.8855e-08
3.99753e-08
4.09119e-08
4.16562e-08
4.22266e-08
4.26003e-08
4.28683e-08
4.2993e-08
4.29653e-08
4.2401e-08
4.16378e-08
4.06823e-08
3.95678e-08
3.82649e-08
3.68267e-08
3.52796e-08
3.36128e-08
3.18097e-08
2.9895e-08
2.7909e-08
2.58765e-08
2.38287e-08
2.18282e-08
1.98492e-08
1.79789e-08
1.61911e-08
1.44516e-08
1.29646e-08
1.14367e-08
1.00417e-08
9.35645e-09
8.70473e-09
5.7984e-09
3.08819e-09
6.02237e-09
9.52809e-09
1.32406e-08
1.6814e-08
2.01978e-08
2.31375e-08
2.60358e-08
2.85587e-08
3.08471e-08
3.30984e-08
3.5118e-08
3.68827e-08
3.83894e-08
3.9684e-08
4.0802e-08
4.17774e-08
4.26086e-08
4.32511e-08
4.37442e-08
4.40615e-08
4.42346e-08
4.42603e-08
4.41633e-08
4.39976e-08
4.37165e-08
4.32369e-08
4.22291e-08
4.10486e-08
3.97135e-08
3.82565e-08
3.66908e-08
3.50081e-08
3.32385e-08
3.13772e-08
2.94222e-08
2.7403e-08
2.53622e-08
2.33266e-08
2.13452e-08
1.93997e-08
1.75589e-08
1.58139e-08
1.41246e-08
1.26795e-08
1.11827e-08
9.84645e-09
9.15328e-09
8.5689e-09
5.6277e-09
2.82982e-08
2.7704e-08
3.22849e-08
3.50948e-08
3.75063e-08
3.9684e-08
4.10523e-08
4.22962e-08
4.31181e-08
4.37245e-08
4.43282e-08
4.48325e-08
4.51856e-08
4.5739e-08
4.61758e-08
4.64887e-08
4.67627e-08
4.69031e-08
4.69358e-08
4.68694e-08
4.66578e-08
4.63383e-08
4.59278e-08
4.54744e-08
4.49599e-08
4.43603e-08
4.36377e-08
4.26902e-08
4.12676e-08
3.97424e-08
3.80825e-08
3.63348e-08
3.45232e-08
3.26623e-08
3.07498e-08
2.87432e-08
2.6707e-08
2.4665e-08
2.26525e-08
2.06989e-08
1.87909e-08
1.70072e-08
1.53148e-08
1.36907e-08
1.22863e-08
1.08398e-08
9.57145e-09
8.90009e-09
8.3639e-09
5.42673e-09
4.61347e-08
6.98351e-08
6.94627e-08
6.67582e-08
6.47365e-08
6.43718e-08
6.26763e-08
6.11676e-08
5.97591e-08
5.84708e-08
5.73123e-08
5.62014e-08
5.50872e-08
5.40186e-08
5.30216e-08
5.24063e-08
5.18388e-08
5.12167e-08
5.05521e-08
4.98491e-08
4.90572e-08
4.82423e-08
4.74034e-08
4.65133e-08
4.56256e-08
4.46845e-08
4.3667e-08
4.25662e-08
4.11865e-08
3.94181e-08
3.7579e-08
3.56901e-08
3.37619e-08
3.18049e-08
2.98387e-08
2.78326e-08
2.57889e-08
2.37652e-08
2.17741e-08
1.98661e-08
1.80229e-08
1.63137e-08
1.46828e-08
1.3123e-08
1.1785e-08
1.03991e-08
9.21952e-09
8.57085e-09
8.07239e-09
5.18988e-09
1.00898e-08
5.8399e-08
7.71973e-08
8.17335e-08
8.14591e-08
8.10155e-08
7.88514e-08
7.62422e-08
7.35335e-08
7.08093e-08
6.81566e-08
6.5658e-08
6.33189e-08
6.1137e-08
5.90947e-08
5.7294e-08
5.59612e-08
5.46478e-08
5.3353e-08
5.20693e-08
5.07959e-08
4.95249e-08
4.82565e-08
4.69937e-08
4.57814e-08
4.45047e-08
4.31858e-08
4.18135e-08
4.03854e-08
3.86258e-08
3.66311e-08
3.46171e-08
3.26016e-08
3.05914e-08
2.85975e-08
2.66299e-08
2.46203e-08
2.26248e-08
2.06961e-08
1.8863e-08
1.71016e-08
1.54601e-08
1.38961e-08
1.24387e-08
1.11678e-08
9.86362e-09
8.77516e-09
8.17113e-09
7.70348e-09
4.92065e-09
1.28637e-09
2.59948e-08
4.94188e-08
6.68206e-08
7.58131e-08
8.00517e-08
8.13718e-08
8.04892e-08
7.86871e-08
7.60147e-08
7.32111e-08
7.04072e-08
6.76792e-08
6.50487e-08
6.25591e-08
6.03506e-08
5.83928e-08
5.65854e-08
5.48212e-08
5.31096e-08
5.14257e-08
4.97838e-08
4.81838e-08
4.66012e-08
4.511e-08
4.35691e-08
4.2011e-08
4.04121e-08
3.87984e-08
3.7146e-08
3.51007e-08
3.30327e-08
3.09814e-08
2.89613e-08
2.69772e-08
2.50455e-08
2.31716e-08
2.12761e-08
1.94252e-08
1.7667e-08
1.59883e-08
1.44556e-08
1.29908e-08
1.16385e-08
1.04583e-08
9.23335e-09
8.26317e-09
7.69589e-09
7.26211e-09
4.6236e-09
1.54781e-10
5.96722e-09
1.79753e-08
3.54065e-08
5.08427e-08
6.16375e-08
6.84556e-08
7.18148e-08
7.34134e-08
7.31587e-08
7.21799e-08
7.0457e-08
6.83988e-08
6.62113e-08
6.39083e-08
6.13721e-08
5.9005e-08
5.6809e-08
5.47089e-08
5.26882e-08
5.07231e-08
4.88021e-08
4.69332e-08
4.51007e-08
4.33823e-08
4.1673e-08
3.99634e-08
3.82411e-08
3.65194e-08
3.47875e-08
3.29133e-08
3.08648e-08
2.88576e-08
2.69014e-08
2.50013e-08
2.31558e-08
2.13715e-08
1.96554e-08
1.79358e-08
1.62951e-08
1.47356e-08
1.33158e-08
1.19667e-08
1.07288e-08
9.64209e-09
8.51373e-09
7.65923e-09
7.15018e-09
6.73411e-09
4.3192e-09
1.73314e-11
8.41868e-10
3.95963e-09
1.16535e-08
2.3485e-08
3.55045e-08
4.55998e-08
5.28531e-08
5.73865e-08
5.96599e-08
6.14544e-08
6.18434e-08
6.16099e-08
6.08482e-08
5.96202e-08
5.77864e-08
5.58936e-08
5.3879e-08
5.18301e-08
4.98141e-08
4.78424e-08
4.58975e-08
4.40183e-08
4.21755e-08
4.03949e-08
3.86454e-08
3.68993e-08
3.51647e-08
3.34397e-08
3.17236e-08
3.0004e-08
2.80711e-08
2.61851e-08
2.43545e-08
2.25899e-08
2.08918e-08
1.92516e-08
1.76779e-08
1.61914e-08
1.4724e-08
1.33129e-08
1.20282e-08
1.08087e-08
9.69938e-09
8.71148e-09
7.70466e-09
6.98861e-09
6.53599e-09
6.12398e-09
3.9758e-09
2.41771e-11
2.36814e-10
8.17272e-10
2.4867e-09
6.54536e-09
1.35809e-08
2.20306e-08
2.9385e-08
3.56476e-08
4.03468e-08
4.39251e-08
4.61252e-08
4.76859e-08
4.84736e-08
4.84688e-08
4.81358e-08
4.74665e-08
4.63865e-08
4.50752e-08
4.36431e-08
4.21347e-08
4.05702e-08
3.90035e-08
3.74309e-08
3.58136e-08
3.41851e-08
3.25524e-08
3.09279e-08
2.9317e-08
2.77296e-08
2.6157e-08
2.44664e-08
2.2807e-08
2.12019e-08
1.96509e-08
1.81598e-08
1.67247e-08
1.53632e-08
1.40595e-08
1.28293e-08
1.16422e-08
1.05116e-08
9.45125e-09
8.5006e-09
7.64072e-09
6.77119e-09
6.19117e-09
5.81459e-09
5.42308e-09
3.57994e-09
2.09292e-11
1.11307e-10
2.80644e-10
5.93972e-10
1.32758e-09
3.08086e-09
6.2029e-09
1.0587e-08
1.55074e-08
2.01893e-08
2.43807e-08
2.78322e-08
3.06273e-08
3.28771e-08
3.39798e-08
3.46971e-08
3.49496e-08
3.48602e-08
3.45476e-08
3.40175e-08
3.33115e-08
3.24529e-08
3.15063e-08
3.04816e-08
2.93189e-08
2.80069e-08
2.66801e-08
2.53498e-08
2.4017e-08
2.27087e-08
2.14047e-08
2.00348e-08
1.86989e-08
1.74095e-08
1.61559e-08
1.4944e-08
1.37763e-08
1.26628e-08
1.15924e-08
1.05921e-08
9.63486e-09
8.7445e-09
7.88175e-09
7.10797e-09
6.39718e-09
5.70102e-09
5.2562e-09
4.94597e-09
4.65111e-09
3.1206e-09
1.50516e-11
6.28378e-11
1.36408e-10
2.36888e-10
3.93436e-10
6.63828e-10
1.18413e-09
2.18537e-09
3.87207e-09
6.16138e-09
8.84762e-09
1.16364e-08
1.42908e-08
1.64266e-08
1.81942e-08
1.96283e-08
2.07925e-08
2.15774e-08
2.21761e-08
2.25173e-08
2.2615e-08
2.25035e-08
2.22612e-08
2.18745e-08
2.12683e-08
2.04497e-08
1.96025e-08
1.87262e-08
1.7821e-08
1.69062e-08
1.59678e-08
1.50267e-08
1.40948e-08
1.31855e-08
1.22824e-08
1.14039e-08
1.05499e-08
9.72331e-09
8.93443e-09
8.18122e-09
7.46176e-09
6.79148e-09
6.14717e-09
5.56377e-09
5.01987e-09
4.51744e-09
4.23548e-09
4.01842e-09
3.81284e-09
2.60555e-09
1.01964e-11
3.84436e-11
7.62636e-11
1.23055e-10
1.78025e-10
2.45839e-10
3.37949e-10
4.80905e-10
7.21477e-10
1.13962e-09
1.81951e-09
2.78339e-09
3.94097e-09
5.20526e-09
6.49162e-09
7.72034e-09
8.86251e-09
9.8763e-09
1.07573e-08
1.14867e-08
1.20753e-08
1.24906e-08
1.27884e-08
1.29363e-08
1.28135e-08
1.25413e-08
1.22242e-08
1.18407e-08
1.14056e-08
1.09389e-08
1.04528e-08
9.95429e-09
9.43857e-09
8.91549e-09
8.37299e-09
7.83994e-09
7.30702e-09
6.77697e-09
6.26484e-09
5.77247e-09
5.29606e-09
4.8428e-09
4.41415e-09
4.02179e-09
3.66738e-09
3.36529e-09
3.20732e-09
3.06977e-09
2.95893e-09
2.05581e-09
6.80728e-12
2.41512e-11
4.53329e-11
6.95845e-11
9.60865e-11
1.24215e-10
1.52678e-10
1.84388e-10
2.22218e-10
2.72732e-10
3.54268e-10
4.919e-10
6.94427e-10
9.77623e-10
1.34703e-09
1.79659e-09
2.30677e-09
2.85401e-09
3.41692e-09
3.9519e-09
4.45837e-09
4.91057e-09
5.30149e-09
5.58123e-09
5.78525e-09
5.91561e-09
5.97896e-09
5.98393e-09
5.93948e-09
5.84537e-09
5.72293e-09
5.56597e-09
5.37706e-09
5.16774e-09
4.93057e-09
4.68129e-09
4.41697e-09
4.14875e-09
3.87879e-09
3.60751e-09
3.34151e-09
3.0857e-09
2.84771e-09
2.62751e-09
2.44286e-09
2.30051e-09
2.23073e-09
2.19138e-09
2.12827e-09
1.51346e-09
4.4535e-12
1.52413e-11
2.77512e-11
4.1449e-11
5.5649e-11
6.96571e-11
8.28597e-11
9.4485e-11
1.03905e-10
1.11549e-10
1.2535e-10
1.44957e-10
1.69707e-10
2.02201e-10
2.46725e-10
3.0753e-10
3.90154e-10
5.00374e-10
6.38628e-10
8.01729e-10
9.9214e-10
1.20971e-09
1.4262e-09
1.63267e-09
1.82155e-09
1.98889e-09
2.12893e-09
2.24177e-09
2.32488e-09
2.38434e-09
2.42367e-09
2.43377e-09
2.42703e-09
2.39608e-09
2.34682e-09
2.28188e-09
2.19991e-09
2.10814e-09
2.00834e-09
1.90316e-09
1.7979e-09
1.69302e-09
1.59655e-09
1.50927e-09
1.44808e-09
1.40809e-09
1.40875e-09
1.44498e-09
1.40924e-09
1.00708e-09
2.83604e-12
9.50378e-12
1.70168e-11
2.5039e-11
3.31347e-11
4.08216e-11
4.76052e-11
5.30075e-11
5.65599e-11
5.94231e-11
6.41828e-11
6.82259e-11
7.15182e-11
7.41907e-11
7.67745e-11
7.8746e-11
8.16016e-11
8.47879e-11
1.00938e-10
1.27153e-10
1.60612e-10
2.02207e-10
2.51418e-10
3.07625e-10
3.69423e-10
4.34192e-10
4.99142e-10
5.63133e-10
6.21671e-10
6.76421e-10
7.25681e-10
7.65964e-10
7.98303e-10
8.22307e-10
8.37834e-10
8.44043e-10
8.43758e-10
8.37355e-10
8.24102e-10
8.06448e-10
7.87735e-10
7.69221e-10
7.56045e-10
7.477e-10
7.51928e-10
7.68724e-10
8.15466e-10
8.66494e-10
8.39578e-10
5.87044e-10
1.73971e-12
5.76221e-12
1.0228e-11
1.49336e-11
1.96169e-11
2.39734e-11
2.76752e-11
3.03855e-11
3.23718e-11
3.51687e-11
3.72387e-11
3.84397e-11
3.86062e-11
3.76742e-11
3.55954e-11
3.22161e-11
2.73749e-11
2.68086e-11
2.94374e-11
3.22857e-11
3.61444e-11
4.04e-11
4.58505e-11
5.19544e-11
5.97752e-11
6.89211e-11
7.93137e-11
9.11845e-11
1.04179e-10
1.18229e-10
1.33086e-10
1.49021e-10
1.64671e-10
1.79702e-10
1.95254e-10
2.09371e-10
2.22725e-10
2.34724e-10
2.45266e-10
2.56101e-10
2.66957e-10
2.78729e-10
2.9391e-10
3.14292e-10
3.40953e-10
3.74255e-10
4.22547e-10
4.58338e-10
4.36321e-10
2.8448e-10
1.01052e-12
3.32964e-12
5.88851e-12
8.56747e-12
1.12094e-11
1.36255e-11
1.5604e-11
1.77245e-11
1.97121e-11
2.12563e-11
2.22466e-11
2.25752e-11
2.21432e-11
2.08528e-11
1.86068e-11
1.53319e-11
1.28519e-11
1.31637e-11
1.33481e-11
1.33963e-11
1.32839e-11
1.32161e-11
1.30008e-11
1.25547e-11
1.20187e-11
1.14264e-11
1.05637e-11
9.88871e-12
9.71367e-12
1.18073e-11
1.41521e-11
1.72978e-11
2.07335e-11
2.49525e-11
2.94336e-11
3.46067e-11
3.98687e-11
4.61089e-11
5.23355e-11
5.87788e-11
6.56132e-11
7.82568e-11
9.41453e-11
1.13807e-10
1.37317e-10
1.63973e-10
1.93714e-10
2.07133e-10
1.91626e-10
1.09515e-10
5.38844e-13
1.77645e-12
3.14134e-12
4.56348e-12
6.07354e-12
7.64073e-12
9.15077e-12
1.05233e-11
1.16728e-11
1.25139e-11
1.29629e-11
1.29372e-11
1.23592e-11
1.11541e-11
9.24852e-12
7.36791e-12
7.38538e-12
7.27404e-12
7.02172e-12
6.66255e-12
6.12583e-12
5.38913e-12
4.43308e-12
3.23916e-12
1.81525e-12
1.93581e-12
2.10619e-12
2.29463e-12
2.51523e-12
2.89017e-12
3.36377e-12
3.93579e-12
4.76934e-12
5.73154e-12
6.93369e-12
8.40324e-12
1.00306e-11
1.20865e-11
1.43585e-11
1.6773e-11
1.95836e-11
2.25994e-11
2.57138e-11
3.65958e-11
5.02064e-11
6.42043e-11
7.49655e-11
7.89707e-11
6.71868e-11
3.15164e-11
2.72316e-13
9.15228e-13
1.6561e-12
2.47685e-12
3.34709e-12
4.22608e-12
5.06496e-12
5.8088e-12
6.39916e-12
6.77561e-12
6.87735e-12
6.64457e-12
6.01792e-12
4.93983e-12
4.29637e-12
4.3008e-12
4.20697e-12
4.00369e-12
3.67856e-12
3.21794e-12
2.60507e-12
1.82177e-12
8.4811e-13
8.11139e-13
8.08179e-13
7.98686e-13
7.87594e-13
7.8097e-13
7.86766e-13
8.39619e-13
9.5119e-13
1.11281e-12
1.33015e-12
1.64075e-12
2.04807e-12
2.5315e-12
3.09281e-12
3.79423e-12
4.60079e-12
5.47996e-12
6.42608e-12
7.40504e-12
8.36065e-12
9.99542e-12
1.61165e-11
2.14752e-11
2.56059e-11
2.48319e-11
1.74849e-11
7.94214e-12
1.18349e-13
4.16669e-13
7.73933e-13
1.17542e-12
1.59896e-12
2.01661e-12
2.39635e-12
2.7028e-12
2.89812e-12
2.94247e-12
2.79435e-12
2.41237e-12
2.21888e-12
2.28275e-12
2.28872e-12
2.22818e-12
2.09198e-12
1.86972e-12
1.54979e-12
1.11925e-12
5.6484e-13
4.23198e-13
3.98101e-13
3.65452e-13
3.26051e-13
2.81634e-13
2.37742e-13
2.04529e-13
1.78034e-13
1.67071e-13
1.82178e-13
2.2831e-13
3.06589e-13
4.2709e-13
5.93593e-13
8.00333e-13
1.04507e-12
1.32223e-12
1.62414e-12
1.93985e-12
2.2559e-12
2.54008e-12
2.75942e-12
2.86386e-12
4.79617e-12
6.86413e-12
7.30995e-12
6.15562e-12
3.93738e-12
1.8369e-12
2.80062e-14
1.20479e-13
2.43656e-13
3.74386e-13
4.96197e-13
5.9196e-13
6.44579e-13
6.35004e-13
6.77727e-13
7.61579e-13
8.30114e-13
8.77637e-13
8.98238e-13
8.86081e-13
8.35051e-13
7.37943e-13
5.86327e-13
3.7151e-13
2.09134e-13
1.99477e-13
1.84297e-13
1.64027e-13
1.37004e-13
1.04238e-13
6.67423e-14
2.3958e-14
2.19692e-15
2.32343e-15
2.51761e-15
2.79415e-15
3.2294e-15
4.18013e-15
5.24263e-15
6.3997e-15
8.12106e-14
1.79052e-13
2.93372e-13
4.19126e-13
5.45379e-13
6.57571e-13
7.54487e-13
8.20651e-13
8.5272e-13
8.1682e-13
8.03403e-13
1.32505e-12
1.32892e-12
1.02812e-12
6.06494e-13
2.76186e-13
5.88346e-16
7.59255e-15
1.61301e-14
2.14299e-14
2.40151e-14
2.24985e-14
1.6281e-14
1.52474e-14
1.80763e-14
2.06751e-14
2.28488e-14
2.43865e-14
2.50806e-14
2.4786e-14
2.34275e-14
2.05488e-14
1.56986e-14
8.58952e-15
4.79305e-16
4.75519e-16
4.64295e-16
4.45417e-16
4.19616e-16
3.89408e-16
3.58626e-16
3.32399e-16
3.17907e-16
3.21608e-16
3.46783e-16
3.96791e-16
4.74612e-16
5.78264e-16
7.03349e-16
8.45316e-16
9.97647e-16
1.15129e-15
1.29546e-15
1.41836e-15
1.50626e-15
1.54674e-15
1.53108e-15
2.72375e-14
4.97403e-14
6.01452e-14
5.9821e-14
5.13498e-14
3.74835e-14
2.41121e-14
1.26433e-14
7.27819e-15
)
;

boundaryField
{
    AXIS
    {
        type            empty;
    }
    OUTLET
    {
        type            calculated;
        value           nonuniform List<scalar> 
25
(
6.04676e-09
6.01042e-09
5.92581e-09
5.7984e-09
5.6277e-09
5.42673e-09
5.18988e-09
4.92065e-09
4.6236e-09
4.3192e-09
3.9758e-09
3.57994e-09
3.1206e-09
2.60555e-09
2.05581e-09
1.51346e-09
1.00708e-09
5.87044e-10
2.8448e-10
1.09515e-10
3.15164e-11
7.94214e-12
1.8369e-12
2.76186e-13
7.27819e-15
)
;
    }
    COFLOW
    {
        type            calculated;
        value           uniform 0;
    }
    PILOT
    {
        type            calculated;
        value           uniform 2.68926e-19;
    }
    FUEL
    {
        type            calculated;
        value           uniform 0;
    }
    WALL
    {
        type            calculated;
        value           nonuniform List<scalar> 
50
(
5.88346e-16
7.59255e-15
1.61301e-14
2.14299e-14
2.40151e-14
2.24985e-14
1.6281e-14
1.52474e-14
1.80763e-14
2.06751e-14
2.28488e-14
2.43865e-14
2.50806e-14
2.4786e-14
2.34275e-14
2.05488e-14
1.56986e-14
8.58952e-15
4.79305e-16
4.75519e-16
4.64295e-16
4.45417e-16
4.19616e-16
3.89408e-16
3.58626e-16
3.32399e-16
3.17907e-16
3.21608e-16
3.46783e-16
3.96791e-16
4.74612e-16
5.78264e-16
7.03349e-16
8.45316e-16
9.97647e-16
1.15129e-15
1.29546e-15
1.41836e-15
1.50626e-15
1.54674e-15
1.53108e-15
2.72375e-14
4.97403e-14
6.01452e-14
5.9821e-14
5.13498e-14
3.74835e-14
2.41121e-14
1.26433e-14
7.27819e-15
)
;
    }
    front
    {
        type            wedge;
    }
    back
    {
        type            wedge;
    }
}


// ************************************************************************* //
