/*--------------------------------*- C++ -*----------------------------------*\
| =========                 |                                                 |
| \\      /  F ield         | OpenFOAM: The Open Source CFD Toolbox           |
|  \\    /   O peration     | Version:  2.4.x                                 |
|   \\  /    A nd           | Web:      www.OpenFOAM.org                      |
|    \\/     M anipulation  |                                                 |
\*---------------------------------------------------------------------------*/
FoamFile
{
    version     2.0;
    format      ascii;
    class       volScalarField;
    location    "0.1";
    object      CH3OH;
}
// * * * * * * * * * * * * * * * * * * * * * * * * * * * * * * * * * * * * * //

dimensions      [0 0 0 0 0 0 0];

internalField   nonuniform List<scalar> 
1250
(
9.15424e-07
3.20082e-06
5.24057e-06
6.81482e-06
7.94936e-06
8.58544e-06
8.71921e-06
8.39182e-06
8.01758e-06
9.06057e-06
1.01918e-05
1.1482e-05
1.2831e-05
1.42225e-05
1.55902e-05
1.70085e-05
1.84927e-05
2.00614e-05
2.15568e-05
2.29995e-05
2.43429e-05
2.5598e-05
2.67266e-05
2.77842e-05
2.94093e-05
3.10862e-05
3.22838e-05
3.29765e-05
3.32057e-05
3.29934e-05
3.23667e-05
3.14102e-05
3.0032e-05
2.82092e-05
2.62138e-05
2.41128e-05
2.1986e-05
1.98661e-05
1.78372e-05
1.58773e-05
1.40403e-05
1.23374e-05
1.08084e-05
9.40134e-06
8.19311e-06
7.00824e-06
6.07899e-06
5.62114e-06
5.09519e-06
3.15015e-06
1.09155e-06
3.61464e-06
5.63307e-06
7.08893e-06
7.99578e-06
8.33382e-06
8.12299e-06
7.48796e-06
8.19772e-06
9.23719e-06
1.03663e-05
1.16427e-05
1.2994e-05
1.43523e-05
1.57145e-05
1.71233e-05
1.85997e-05
2.01325e-05
2.1615e-05
2.30227e-05
2.43467e-05
2.55702e-05
2.66698e-05
2.76875e-05
2.89147e-05
3.05948e-05
3.17799e-05
3.24718e-05
3.26997e-05
3.2484e-05
3.18726e-05
3.0921e-05
2.96082e-05
2.78156e-05
2.58528e-05
2.3789e-05
2.16971e-05
1.96192e-05
1.76216e-05
1.56972e-05
1.38882e-05
1.22234e-05
1.07112e-05
9.32779e-06
8.13191e-06
6.96103e-06
6.04138e-06
5.59059e-06
5.06415e-06
3.11973e-06
1.66099e-06
4.76807e-06
6.58988e-06
7.54846e-06
7.67756e-06
7.09222e-06
6.71288e-06
7.61378e-06
8.58047e-06
9.5811e-06
1.07192e-05
1.19807e-05
1.32896e-05
1.46104e-05
1.59798e-05
1.73554e-05
1.88033e-05
2.02834e-05
2.17104e-05
2.30624e-05
2.43307e-05
2.54882e-05
2.65245e-05
2.74485e-05
2.81875e-05
2.95622e-05
3.07261e-05
3.14163e-05
3.16336e-05
3.14142e-05
3.08278e-05
2.98837e-05
2.86685e-05
2.69668e-05
2.50705e-05
2.30857e-05
2.10676e-05
1.90848e-05
1.71445e-05
1.53006e-05
1.35425e-05
1.19591e-05
1.0484e-05
9.15224e-06
7.9841e-06
6.84729e-06
5.96795e-06
5.52531e-06
5.01561e-06
3.04883e-06
3.46083e-06
7.13104e-06
7.752e-06
6.72587e-06
5.79717e-06
6.49641e-06
7.26165e-06
8.0887e-06
9.0116e-06
9.99e-06
1.11379e-05
1.2357e-05
1.36396e-05
1.49588e-05
1.62965e-05
1.76229e-05
1.90366e-05
2.04398e-05
2.17934e-05
2.30665e-05
2.42401e-05
2.53061e-05
2.62278e-05
2.70315e-05
2.76573e-05
2.80914e-05
2.92424e-05
2.99052e-05
3.01074e-05
2.99068e-05
2.93188e-05
2.84215e-05
2.72551e-05
2.5741e-05
2.39453e-05
2.20643e-05
2.0169e-05
1.82864e-05
1.64486e-05
1.46984e-05
1.30458e-05
1.15501e-05
1.01488e-05
8.88081e-06
7.76664e-06
6.68741e-06
5.84551e-06
5.40466e-06
4.92012e-06
2.94649e-06
1.04576e-05
1.033e-05
6.05996e-06
6.10559e-06
6.39814e-06
6.86486e-06
7.53807e-06
8.33532e-06
9.2646e-06
1.02615e-05
1.14421e-05
1.26756e-05
1.39477e-05
1.52362e-05
1.65384e-05
1.78344e-05
1.91946e-05
2.05241e-05
2.17731e-05
2.2939e-05
2.39882e-05
2.49227e-05
2.57298e-05
2.63844e-05
2.68798e-05
2.71913e-05
2.74351e-05
2.80697e-05
2.8257e-05
2.80441e-05
2.74865e-05
2.66287e-05
2.55123e-05
2.41966e-05
2.25329e-05
2.0796e-05
1.90247e-05
1.72648e-05
1.55525e-05
1.39294e-05
1.24102e-05
1.10053e-05
9.69944e-06
8.50563e-06
7.46534e-06
6.4571e-06
5.66916e-06
5.21481e-06
4.77884e-06
2.81441e-06
1.84307e-05
8.6645e-06
7.52091e-06
7.52588e-06
7.9116e-06
8.47032e-06
9.14258e-06
9.90629e-06
1.06769e-05
1.14619e-05
1.2344e-05
1.32364e-05
1.41227e-05
1.53768e-05
1.66633e-05
1.79165e-05
1.92111e-05
2.04248e-05
2.15548e-05
2.25907e-05
2.34997e-05
2.42921e-05
2.49591e-05
2.54721e-05
2.58102e-05
2.59947e-05
2.60162e-05
2.60331e-05
2.619e-05
2.59748e-05
2.54253e-05
2.46049e-05
2.35585e-05
2.2334e-05
2.0929e-05
1.93083e-05
1.7677e-05
1.60552e-05
1.45106e-05
1.3036e-05
1.16362e-05
1.03485e-05
9.13613e-06
8.04599e-06
7.09141e-06
6.15518e-06
5.41514e-06
4.99024e-06
4.57792e-06
2.65873e-06
1.53605e-05
1.19095e-05
1.00312e-05
9.59441e-06
9.69024e-06
1.01629e-05
1.07354e-05
1.1382e-05
1.20689e-05
1.27933e-05
1.35687e-05
1.43433e-05
1.50995e-05
1.58373e-05
1.6607e-05
1.78099e-05
1.89904e-05
2.00796e-05
2.10696e-05
2.19548e-05
2.27117e-05
2.33595e-05
2.3894e-05
2.42626e-05
2.44562e-05
2.45129e-05
2.44311e-05
2.42162e-05
2.40153e-05
2.37724e-05
2.32373e-05
2.24621e-05
2.14883e-05
2.0346e-05
1.90856e-05
1.76721e-05
1.6198e-05
1.47557e-05
1.33475e-05
1.20137e-05
1.07431e-05
9.57748e-06
8.48964e-06
7.51202e-06
6.64203e-06
5.76554e-06
5.11249e-06
4.71022e-06
4.31313e-06
2.4744e-06
3.87194e-06
1.06805e-05
1.02013e-05
1.02945e-05
1.0558e-05
1.11134e-05
1.17291e-05
1.23678e-05
1.30186e-05
1.36899e-05
1.43591e-05
1.50179e-05
1.56597e-05
1.62764e-05
1.68647e-05
1.74433e-05
1.84797e-05
1.94178e-05
2.02521e-05
2.09789e-05
2.15994e-05
2.21085e-05
2.25073e-05
2.27678e-05
2.28316e-05
2.27676e-05
2.25906e-05
2.23047e-05
2.1914e-05
2.15318e-05
2.10011e-05
2.0262e-05
1.93488e-05
1.82931e-05
1.71554e-05
1.59468e-05
1.46479e-05
1.33514e-05
1.20962e-05
1.09014e-05
9.77676e-06
8.74561e-06
7.77734e-06
6.89892e-06
6.09661e-06
5.33227e-06
4.74864e-06
4.37884e-06
4.00133e-06
2.30411e-06
4.61341e-07
6.64908e-06
7.83109e-06
8.99453e-06
9.98515e-06
1.08218e-05
1.16649e-05
1.2428e-05
1.31462e-05
1.37935e-05
1.44171e-05
1.50152e-05
1.55876e-05
1.61263e-05
1.66327e-05
1.7106e-05
1.76496e-05
1.84317e-05
1.91101e-05
1.96907e-05
2.01668e-05
2.05416e-05
2.0821e-05
2.09945e-05
2.09464e-05
2.07921e-05
2.05447e-05
2.02072e-05
1.97887e-05
1.92918e-05
1.87552e-05
1.80543e-05
1.72147e-05
1.62621e-05
1.52374e-05
1.41514e-05
1.30243e-05
1.18848e-05
1.07884e-05
9.748e-06
8.76661e-06
7.86185e-06
6.99449e-06
6.22955e-06
5.53871e-06
4.84934e-06
4.34744e-06
4.00625e-06
3.65155e-06
2.22874e-06
5.95051e-08
2.76262e-06
4.40942e-06
6.26826e-06
7.87514e-06
9.22735e-06
1.03802e-05
1.13947e-05
1.22834e-05
1.30744e-05
1.38098e-05
1.44757e-05
1.50859e-05
1.56437e-05
1.61335e-05
1.64515e-05
1.67377e-05
1.72782e-05
1.77738e-05
1.81876e-05
1.85154e-05
1.87491e-05
1.89002e-05
1.89648e-05
1.88487e-05
1.8634e-05
1.83443e-05
1.79842e-05
1.75605e-05
1.70799e-05
1.65367e-05
1.58795e-05
1.51092e-05
1.42547e-05
1.3332e-05
1.23803e-05
1.14021e-05
1.04278e-05
9.4794e-06
8.57334e-06
7.71083e-06
6.93744e-06
6.2002e-06
5.53429e-06
4.92848e-06
4.32796e-06
3.89975e-06
3.60367e-06
3.2733e-06
2.12979e-06
1.54805e-08
9.94311e-07
2.09623e-06
3.46124e-06
5.07115e-06
6.64849e-06
8.0749e-06
9.33563e-06
1.02807e-05
1.11309e-05
1.19721e-05
1.27459e-05
1.34479e-05
1.40906e-05
1.46391e-05
1.49408e-05
1.52066e-05
1.56047e-05
1.59546e-05
1.62351e-05
1.64478e-05
1.65825e-05
1.66591e-05
1.66654e-05
1.65235e-05
1.62798e-05
1.59783e-05
1.56246e-05
1.52214e-05
1.47784e-05
1.42913e-05
1.36852e-05
1.30012e-05
1.2251e-05
1.14599e-05
1.06363e-05
9.79894e-06
8.9507e-06
8.14029e-06
7.37165e-06
6.65101e-06
5.99404e-06
5.36836e-06
4.80487e-06
4.28576e-06
3.78394e-06
3.43627e-06
3.17764e-06
2.99134e-06
2.00283e-06
3.42578e-08
3.95962e-07
1.10962e-06
1.75041e-06
2.64217e-06
3.84899e-06
5.20259e-06
6.37632e-06
7.43555e-06
8.39077e-06
9.25229e-06
1.00299e-05
1.07439e-05
1.13897e-05
1.18924e-05
1.2303e-05
1.27289e-05
1.31231e-05
1.34271e-05
1.36654e-05
1.38408e-05
1.39499e-05
1.40051e-05
1.4004e-05
1.38809e-05
1.36509e-05
1.3374e-05
1.30575e-05
1.2705e-05
1.23241e-05
1.1912e-05
1.13917e-05
1.08074e-05
1.01788e-05
9.51747e-06
8.83731e-06
8.14262e-06
7.46312e-06
6.78769e-06
6.13897e-06
5.52639e-06
4.98613e-06
4.48356e-06
4.03082e-06
3.60319e-06
3.19782e-06
2.93059e-06
2.71142e-06
2.69133e-06
1.83873e-06
3.65829e-08
2.0258e-07
5.06027e-07
8.94114e-07
1.34135e-06
1.80635e-06
2.5499e-06
3.44241e-06
4.3492e-06
5.21938e-06
6.05636e-06
6.86056e-06
7.60404e-06
8.30671e-06
8.80537e-06
9.24916e-06
9.64428e-06
9.98683e-06
1.02774e-05
1.05166e-05
1.07094e-05
1.0846e-05
1.09349e-05
1.09753e-05
1.09208e-05
1.07447e-05
1.05334e-05
1.02912e-05
1.00179e-05
9.72747e-06
9.40933e-06
8.98011e-06
8.51261e-06
8.02395e-06
7.51195e-06
6.98452e-06
6.45136e-06
5.92613e-06
5.40409e-06
4.90524e-06
4.4196e-06
3.97059e-06
3.55664e-06
3.21394e-06
2.88655e-06
2.57505e-06
2.37366e-06
2.28062e-06
2.34088e-06
1.6301e-06
2.79638e-08
1.17579e-07
2.57183e-07
4.28638e-07
6.29865e-07
8.62838e-07
1.12942e-06
1.44783e-06
1.85699e-06
2.44985e-06
3.09811e-06
3.76318e-06
4.41413e-06
4.95302e-06
5.44086e-06
5.87424e-06
6.27392e-06
6.62146e-06
6.92797e-06
7.18851e-06
7.40752e-06
7.57658e-06
7.70717e-06
7.7937e-06
7.80464e-06
7.72279e-06
7.6116e-06
7.47304e-06
7.30734e-06
7.12219e-06
6.86482e-06
6.56404e-06
6.23898e-06
5.89884e-06
5.53879e-06
5.17011e-06
4.79629e-06
4.42092e-06
4.05361e-06
3.69455e-06
3.34861e-06
3.02478e-06
2.72021e-06
2.45209e-06
2.20033e-06
2.00168e-06
1.91386e-06
1.893e-06
1.95421e-06
1.38337e-06
1.92148e-08
7.24846e-08
1.43172e-07
2.26963e-07
3.17255e-07
4.11828e-07
5.09656e-07
6.12884e-07
7.26528e-07
8.76639e-07
1.09534e-06
1.41418e-06
1.77791e-06
2.15132e-06
2.52292e-06
2.87553e-06
3.20917e-06
3.52015e-06
3.80627e-06
4.06056e-06
4.29119e-06
4.48386e-06
4.64464e-06
4.77102e-06
4.8352e-06
4.85866e-06
4.8577e-06
4.82707e-06
4.73886e-06
4.61636e-06
4.47256e-06
4.31092e-06
4.12913e-06
3.93195e-06
3.71502e-06
3.49279e-06
3.26275e-06
3.02696e-06
2.79572e-06
2.57069e-06
2.35069e-06
2.14079e-06
1.94819e-06
1.77321e-06
1.62301e-06
1.51836e-06
1.48391e-06
1.49576e-06
1.54548e-06
1.10737e-06
1.28106e-08
4.53645e-08
8.47773e-08
1.28779e-07
1.74516e-07
2.18974e-07
2.57587e-07
2.90444e-07
3.15416e-07
3.31358e-07
3.58598e-07
4.33423e-07
5.30361e-07
6.51154e-07
7.96427e-07
9.62843e-07
1.14392e-06
1.33152e-06
1.52253e-06
1.6997e-06
1.86873e-06
2.01935e-06
2.14743e-06
2.26998e-06
2.37426e-06
2.45197e-06
2.50153e-06
2.53004e-06
2.53515e-06
2.51685e-06
2.48474e-06
2.43281e-06
2.36378e-06
2.28323e-06
2.18657e-06
2.08135e-06
1.96702e-06
1.8485e-06
1.72785e-06
1.60595e-06
1.48566e-06
1.37129e-06
1.26903e-06
1.17706e-06
1.10577e-06
1.06653e-06
1.06794e-06
1.11155e-06
1.13405e-06
8.30817e-07
8.28594e-09
2.82773e-08
5.12229e-08
7.58089e-08
1.00297e-07
1.22812e-07
1.41488e-07
1.54128e-07
1.58633e-07
1.53797e-07
1.61379e-07
1.76408e-07
1.91476e-07
2.07228e-07
2.25736e-07
2.48046e-07
2.76453e-07
3.12731e-07
3.56193e-07
4.05147e-07
4.70066e-07
5.63398e-07
6.5525e-07
7.43745e-07
8.25321e-07
8.9906e-07
9.61559e-07
1.01248e-06
1.05014e-06
1.07873e-06
1.09775e-06
1.10248e-06
1.1003e-06
1.08628e-06
1.06423e-06
1.03482e-06
9.97201e-07
9.54898e-07
9.09145e-07
8.6127e-07
8.13536e-07
7.67835e-07
7.28289e-07
6.95752e-07
6.79531e-07
6.78608e-07
7.06921e-07
7.6657e-07
7.72076e-07
5.68074e-07
5.16849e-09
1.72628e-08
3.07252e-08
4.4774e-08
5.83884e-08
7.04195e-08
7.96602e-08
8.48997e-08
8.48967e-08
8.33171e-08
8.83405e-08
9.15291e-08
9.26329e-08
9.16188e-08
8.88601e-08
8.314e-08
7.56493e-08
6.51319e-08
6.98926e-08
8.38262e-08
1.01101e-07
1.21963e-07
1.45754e-07
1.7234e-07
2.01362e-07
2.30918e-07
2.59925e-07
2.88609e-07
3.13695e-07
3.36654e-07
3.57333e-07
3.7346e-07
3.85648e-07
3.94261e-07
3.99176e-07
3.99801e-07
3.97696e-07
3.92966e-07
3.85442e-07
3.76468e-07
3.67751e-07
3.60769e-07
3.5813e-07
3.60268e-07
3.71704e-07
3.93012e-07
4.35498e-07
4.83005e-07
4.77501e-07
3.45979e-07
3.06961e-09
1.01283e-08
1.78499e-08
2.57681e-08
3.32834e-08
3.96985e-08
4.42567e-08
4.61749e-08
4.64612e-08
4.98911e-08
5.2047e-08
5.26936e-08
5.16182e-08
4.86551e-08
4.36416e-08
3.63242e-08
2.64406e-08
2.32396e-08
2.49691e-08
2.66661e-08
2.90111e-08
3.13441e-08
3.43098e-08
3.73415e-08
4.12604e-08
4.56554e-08
5.04115e-08
5.56317e-08
6.10109e-08
6.67369e-08
7.27688e-08
7.923e-08
8.53345e-08
9.10061e-08
9.71998e-08
1.02747e-07
1.0796e-07
1.12688e-07
1.16996e-07
1.21928e-07
1.27581e-07
1.34786e-07
1.45125e-07
1.60251e-07
1.80416e-07
2.06178e-07
2.42711e-07
2.71388e-07
2.63097e-07
1.80287e-07
1.69492e-09
5.55828e-09
9.73964e-09
1.39627e-08
1.78693e-08
2.10323e-08
2.2973e-08
2.5584e-08
2.8212e-08
3.00932e-08
3.10542e-08
3.09254e-08
2.95512e-08
2.67787e-08
2.24566e-08
1.64708e-08
1.18777e-08
1.20629e-08
1.20992e-08
1.19766e-08
1.16713e-08
1.13798e-08
1.0897e-08
1.01411e-08
9.23562e-09
8.17663e-09
6.79657e-09
5.42418e-09
4.42557e-09
5.32981e-09
6.31765e-09
7.67485e-09
9.12283e-09
1.09057e-08
1.27592e-08
1.48885e-08
1.70121e-08
1.96206e-08
2.21776e-08
2.48109e-08
2.75922e-08
3.58323e-08
4.69329e-08
6.12936e-08
7.88732e-08
9.87847e-08
1.21205e-07
1.33011e-07
1.26611e-07
7.79331e-08
8.29433e-10
2.71542e-09
4.73453e-09
6.72116e-09
8.83239e-09
1.10631e-08
1.31749e-08
1.50416e-08
1.65293e-08
1.75048e-08
1.78379e-08
1.74005e-08
1.60719e-08
1.37366e-08
1.02803e-08
6.94462e-09
6.91273e-09
6.75136e-09
6.44881e-09
6.04766e-09
5.46293e-09
4.67189e-09
3.6553e-09
2.39522e-09
9.00808e-10
9.60132e-10
1.0449e-09
1.1364e-09
1.24067e-09
1.42293e-09
1.65002e-09
1.91919e-09
2.31601e-09
2.76388e-09
3.32023e-09
3.99513e-09
4.72528e-09
5.65734e-09
6.66781e-09
7.71609e-09
8.92896e-09
1.01982e-08
1.14692e-08
2.01407e-08
3.12382e-08
4.26743e-08
5.20655e-08
5.68992e-08
5.04654e-08
2.60067e-08
3.94365e-10
1.32402e-09
2.39114e-09
3.56563e-09
4.7987e-09
6.02577e-09
7.17003e-09
8.14555e-09
8.86125e-09
9.22333e-09
9.13718e-09
8.51037e-09
7.25107e-09
5.26999e-09
4.08457e-09
4.06436e-09
3.94578e-09
3.71786e-09
3.36838e-09
2.88385e-09
2.24771e-09
1.44194e-09
4.46677e-10
4.07409e-10
4.06614e-10
4.02195e-10
3.96636e-10
3.92953e-10
3.95131e-10
4.2154e-10
4.77641e-10
5.58155e-10
6.65503e-10
8.19644e-10
1.02122e-09
1.25755e-09
1.52819e-09
1.86599e-09
2.24946e-09
2.65956e-09
3.09198e-09
3.52881e-09
3.94394e-09
5.07289e-09
1.06903e-08
1.58135e-08
2.01278e-08
2.04158e-08
1.50902e-08
7.1969e-09
1.68044e-10
5.90615e-10
1.09339e-09
1.65231e-09
2.23206e-09
2.78869e-09
3.27198e-09
3.62678e-09
3.79426e-09
3.71263e-09
3.31751e-09
2.54461e-09
2.12129e-09
2.17132e-09
2.16311e-09
2.08819e-09
1.93747e-09
1.70064e-09
1.36607e-09
9.20849e-10
3.5162e-10
2.13932e-10
2.01102e-10
1.84434e-10
1.64331e-10
1.41669e-10
1.19273e-10
1.02567e-10
8.90173e-11
8.31881e-11
9.05261e-11
1.1358e-10
1.52838e-10
2.13536e-10
2.9759e-10
4.01653e-10
5.24228e-10
6.62117e-10
8.11093e-10
9.65389e-10
1.11818e-09
1.25387e-09
1.35705e-09
1.40405e-09
3.36648e-09
5.57226e-09
6.28851e-09
5.48344e-09
3.59833e-09
1.70348e-09
3.81162e-11
1.63126e-10
3.25649e-10
4.90954e-10
6.33249e-10
7.25616e-10
7.40973e-10
6.49618e-10
6.50526e-10
7.28113e-10
7.898e-10
8.2995e-10
8.42721e-10
8.22373e-10
7.62892e-10
6.5712e-10
4.96651e-10
2.7282e-10
1.06193e-10
1.01242e-10
9.34907e-11
8.31438e-11
6.93528e-11
5.26275e-11
3.34825e-11
1.16359e-11
5.14268e-13
5.43711e-13
5.88894e-13
6.53182e-13
7.55064e-13
9.81921e-13
1.23466e-12
1.50908e-12
3.94152e-11
8.90168e-11
1.46879e-10
2.10373e-10
2.73943e-10
3.30266e-10
3.78754e-10
4.11646e-10
4.27101e-10
4.08167e-10
4.40202e-10
1.03822e-09
1.13078e-09
9.07532e-10
5.43889e-10
2.49713e-10
6.88154e-13
7.31733e-12
1.53343e-11
1.98269e-11
2.13041e-11
1.8366e-11
1.03996e-11
7.77568e-12
9.21263e-12
1.05301e-11
1.16288e-11
1.24014e-11
1.27423e-11
1.25782e-11
1.18714e-11
1.03892e-11
7.90166e-12
4.2618e-12
1.12371e-13
1.11493e-13
1.08872e-13
1.04457e-13
9.84167e-14
9.13399e-14
8.41244e-14
7.79727e-14
7.45691e-14
7.54276e-14
8.13156e-14
9.30158e-14
1.11218e-13
1.35449e-13
1.64667e-13
1.978e-13
2.33318e-13
2.6911e-13
3.02665e-13
3.31252e-13
3.51695e-13
3.61122e-13
3.57517e-13
1.34482e-11
2.49522e-11
3.03395e-11
3.02812e-11
2.60624e-11
1.90647e-11
1.22826e-11
6.44503e-12
3.71677e-12
)
;

boundaryField
{
    AXIS
    {
        type            empty;
    }
    OUTLET
    {
        type            calculated;
        value           nonuniform List<scalar> 
25
(
3.15015e-06
3.11973e-06
3.04883e-06
2.94649e-06
2.81441e-06
2.65873e-06
2.4744e-06
2.30411e-06
2.22874e-06
2.12979e-06
2.00283e-06
1.83873e-06
1.6301e-06
1.38337e-06
1.10737e-06
8.30817e-07
5.68074e-07
3.45979e-07
1.80287e-07
7.79331e-08
2.60067e-08
7.1969e-09
1.70348e-09
2.49713e-10
3.71677e-12
)
;
    }
    COFLOW
    {
        type            calculated;
        value           uniform 0;
    }
    PILOT
    {
        type            calculated;
        value           uniform 8.68572e-19;
    }
    FUEL
    {
        type            calculated;
        value           uniform 0;
    }
    WALL
    {
        type            calculated;
        value           nonuniform List<scalar> 
50
(
6.88154e-13
7.31733e-12
1.53343e-11
1.98269e-11
2.13041e-11
1.8366e-11
1.03996e-11
7.77568e-12
9.21263e-12
1.05301e-11
1.16288e-11
1.24014e-11
1.27423e-11
1.25782e-11
1.18714e-11
1.03892e-11
7.90166e-12
4.2618e-12
1.12371e-13
1.11493e-13
1.08872e-13
1.04457e-13
9.84167e-14
9.13399e-14
8.41244e-14
7.79727e-14
7.45691e-14
7.54276e-14
8.13156e-14
9.30158e-14
1.11218e-13
1.35449e-13
1.64667e-13
1.978e-13
2.33318e-13
2.6911e-13
3.02665e-13
3.31252e-13
3.51695e-13
3.61122e-13
3.57517e-13
1.34482e-11
2.49522e-11
3.03395e-11
3.02812e-11
2.60624e-11
1.90647e-11
1.22826e-11
6.44503e-12
3.71677e-12
)
;
    }
    front
    {
        type            wedge;
    }
    back
    {
        type            wedge;
    }
}


// ************************************************************************* //
