/*--------------------------------*- C++ -*----------------------------------*\
| =========                 |                                                 |
| \\      /  F ield         | OpenFOAM: The Open Source CFD Toolbox           |
|  \\    /   O peration     | Version:  2.4.x                                 |
|   \\  /    A nd           | Web:      www.OpenFOAM.org                      |
|    \\/     M anipulation  |                                                 |
\*---------------------------------------------------------------------------*/
FoamFile
{
    version     2.0;
    format      ascii;
    class       volScalarField;
    location    "0.1";
    object      CH4;
}
// * * * * * * * * * * * * * * * * * * * * * * * * * * * * * * * * * * * * * //

dimensions      [0 0 0 0 0 0 0];

internalField   nonuniform List<scalar> 
1250
(
0.154792
0.151523
0.14782
0.144111
0.140392
0.136757
0.133238
0.129878
0.126563
0.122831
0.119055
0.115135
0.111153
0.107127
0.103123
0.0990634
0.0950695
0.091202
0.0873581
0.0835117
0.0796679
0.0758178
0.0719842
0.0683911
0.064513
0.0604803
0.0565184
0.0526738
0.0489204
0.0453119
0.0418167
0.0384639
0.0352774
0.0322995
0.0294668
0.0268028
0.0243075
0.0219586
0.0197832
0.0177657
0.0158962
0.0141806
0.0126112
0.0111512
0.00989167
0.00862149
0.00756516
0.00695718
0.00616985
0.00378857
0.154597
0.150954
0.147049
0.143187
0.13938
0.135723
0.132236
0.128946
0.125286
0.121554
0.117782
0.113879
0.109909
0.10593
0.101948
0.0979117
0.0939602
0.0901383
0.0863211
0.0825098
0.0786907
0.0748707
0.071074
0.0675194
0.0638705
0.0598606
0.0559392
0.0521184
0.0484056
0.0448252
0.0413634
0.0380448
0.0348842
0.0319353
0.0291352
0.0265022
0.0240332
0.0217142
0.0195651
0.0175749
0.0157269
0.0140375
0.0124835
0.0110437
0.0097964
0.00853977
0.00749465
0.00689561
0.00612038
0.00375093
0.153986
0.149339
0.144933
0.140742
0.136817
0.13326
0.129734
0.12596
0.122238
0.118576
0.114836
0.110992
0.107111
0.103223
0.099285
0.0953322
0.0914925
0.0877592
0.084022
0.0802796
0.0765268
0.0727875
0.0690759
0.0656236
0.0622845
0.058499
0.0546536
0.0508914
0.0472611
0.0437404
0.0403508
0.0371062
0.0340131
0.0311201
0.0283978
0.025836
0.0234243
0.0211771
0.0190813
0.0171539
0.0153454
0.0137123
0.0121935
0.0107987
0.00957881
0.00835463
0.00735051
0.00677019
0.00602868
0.00366439
0.152131
0.145583
0.140374
0.136076
0.132114
0.128105
0.124309
0.120717
0.117193
0.113719
0.110113
0.106447
0.102724
0.0989607
0.0951719
0.0913628
0.0877159
0.084125
0.080506
0.0768782
0.073261
0.0696597
0.0661177
0.0628096
0.0596132
0.0564726
0.0527225
0.0490807
0.0455437
0.0421285
0.0388556
0.0357275
0.032731
0.0299237
0.0273087
0.0248386
0.022528
0.0203716
0.0183662
0.0165142
0.0147834
0.0132215
0.0117677
0.0104336
0.00926393
0.0080915
0.00712911
0.00656963
0.00587413
0.00353844
0.144666
0.135859
0.131112
0.126518
0.122656
0.119316
0.116125
0.113038
0.109964
0.106876
0.103555
0.100158
0.0966585
0.09308
0.0895392
0.0860553
0.0826683
0.0792543
0.0758318
0.0724025
0.0690013
0.065627
0.0622881
0.059168
0.0561547
0.0532033
0.0501996
0.0466839
0.0432977
0.0400425
0.0369133
0.0339144
0.0310679
0.028374
0.0258801
0.0235475
0.0213638
0.0193292
0.0174337
0.0156804
0.0140557
0.0125801
0.0112105
0.00994934
0.00884586
0.00773756
0.00684553
0.00629456
0.00566745
0.00337581
0.0949783
0.111337
0.111467
0.109816
0.10783
0.105912
0.103893
0.101713
0.0993336
0.0967642
0.0940782
0.0914101
0.0887486
0.0857447
0.0826571
0.0795271
0.0764268
0.0733012
0.0701554
0.0670044
0.0638835
0.0607863
0.057721
0.0548185
0.0520346
0.0492803
0.0465874
0.0437789
0.0405722
0.0374824
0.0345484
0.0317507
0.0290824
0.0265488
0.0241778
0.0219959
0.0199697
0.0180695
0.0163121
0.0146889
0.0131817
0.0118143
0.0105329
0.00936757
0.0083393
0.00730788
0.00648738
0.00597336
0.00540424
0.00318664
0.0330171
0.0731237
0.0835461
0.0872318
0.088583
0.0887192
0.0882376
0.0872936
0.0859857
0.0845007
0.0828381
0.0809689
0.0789747
0.0768771
0.0746498
0.0719404
0.0692094
0.0664417
0.0636469
0.0608447
0.0580571
0.0552758
0.0525041
0.0498678
0.0473554
0.0448626
0.042408
0.0400008
0.0374119
0.0345671
0.0318495
0.0292584
0.0267986
0.024467
0.0222793
0.0202483
0.0183833
0.01665
0.0150384
0.0135581
0.0121803
0.0109301
0.00976019
0.00869834
0.00775799
0.00680577
0.00607712
0.00559481
0.0050792
0.00296933
0.00437308
0.0402963
0.0555086
0.0632187
0.0677915
0.0701078
0.071353
0.071808
0.0716834
0.0712096
0.0704536
0.069415
0.0681441
0.0667318
0.0651757
0.0634394
0.061151
0.0588298
0.0564575
0.0540665
0.0516652
0.0492571
0.0468449
0.0444835
0.0422533
0.0400644
0.037902
0.0357773
0.0336885
0.0313224
0.028864
0.0265278
0.0243048
0.0221945
0.020217
0.0183545
0.0166552
0.0151019
0.0136617
0.0123287
0.0110919
0.00996552
0.00890947
0.00796084
0.00710342
0.00625699
0.00560847
0.00517858
0.00470579
0.00275804
0.000538531
0.0172645
0.0316147
0.0410313
0.0473657
0.0516495
0.0543444
0.0560506
0.0570391
0.0575394
0.0576433
0.0573892
0.0568474
0.0560963
0.0551472
0.0540053
0.0526361
0.0507965
0.0488668
0.0469043
0.0449273
0.042918
0.0408901
0.0388623
0.0369512
0.0350729
0.0332109
0.0313936
0.0295931
0.0278307
0.0256833
0.0236122
0.0216549
0.019795
0.0180517
0.0164056
0.0148528
0.0134694
0.012202
0.011026
0.00993375
0.00894618
0.00801335
0.00718243
0.00642655
0.00566954
0.00511959
0.00472688
0.00429824
0.00262737
7.9689e-05
0.00480576
0.0143183
0.0229277
0.0297116
0.0347716
0.0384994
0.0411061
0.042843
0.043986
0.0448124
0.0452897
0.0455608
0.0456179
0.045371
0.04481
0.0440564
0.042776
0.0413037
0.039781
0.0381952
0.0365424
0.0348741
0.0331858
0.0316022
0.0300483
0.0285001
0.0269887
0.0254896
0.0240164
0.0224018
0.0206276
0.0189388
0.0173418
0.0158248
0.0144061
0.0130639
0.0118137
0.0107086
0.00969471
0.00875236
0.0079025
0.0070962
0.00637263
0.00571317
0.00505661
0.00458757
0.00424986
0.00385714
0.00248134
2.12893e-05
0.00110958
0.00491623
0.0101357
0.0153641
0.0205694
0.0244873
0.027501
0.0299213
0.0315475
0.0323027
0.0329668
0.0334964
0.0337904
0.0338785
0.0341276
0.0341419
0.0335895
0.0327901
0.0318767
0.0308721
0.0297659
0.0286323
0.0274442
0.0262231
0.0250096
0.0238015
0.0225956
0.0213922
0.0202092
0.0190204
0.0175461
0.016153
0.0148178
0.0135596
0.0123645
0.011244
0.0101821
0.00920753
0.00833731
0.00754497
0.00682863
0.00614947
0.00553918
0.00497091
0.00442289
0.00404658
0.00375151
0.00349929
0.00231141
3.50486e-05
0.000393892
0.00147046
0.00337941
0.00607323
0.0092091
0.0120568
0.0158122
0.0182703
0.0202248
0.0218119
0.0229469
0.0237752
0.0243209
0.0247043
0.0247775
0.0246002
0.0244135
0.0242303
0.023897
0.02345
0.022878
0.0222313
0.0215145
0.0207025
0.019854
0.0189815
0.0180974
0.0172071
0.01632
0.0154298
0.0143256
0.0132356
0.0121882
0.0111882
0.0102397
0.00933237
0.00849141
0.00769237
0.00695275
0.00627581
0.00568893
0.00514421
0.00465498
0.00418981
0.00374676
0.00345567
0.00320855
0.00312224
0.00210499
3.57372e-05
0.000197138
0.000561925
0.00109725
0.00184881
0.00300212
0.00461315
0.00649053
0.00840669
0.0105519
0.0122945
0.0135342
0.0145482
0.015367
0.016056
0.0165447
0.0168689
0.0170374
0.0170713
0.0169823
0.0167939
0.0165017
0.0161384
0.015699
0.0152071
0.0147032
0.0141637
0.0135986
0.0130096
0.0124183
0.0118061
0.0110045
0.0102209
0.00946942
0.00874072
0.00803653
0.00736303
0.00672976
0.0061228
0.00556115
0.00502733
0.00453857
0.00409192
0.00372129
0.00336613
0.0030324
0.00281517
0.00268915
0.00269547
0.00185627
2.70414e-05
0.000113702
0.000263301
0.000453397
0.000658508
0.000939589
0.00137109
0.00202798
0.00293312
0.00386917
0.00487556
0.00587241
0.00680487
0.00769414
0.008453
0.00906756
0.00959283
0.00998199
0.0102688
0.0104527
0.0105444
0.0105349
0.0104522
0.01029
0.0100981
0.00989352
0.00965156
0.00937472
0.00906407
0.00873311
0.00828375
0.00779822
0.00731178
0.00683415
0.00635738
0.00589169
0.00543841
0.00499838
0.00458212
0.00418438
0.00380785
0.003459
0.00313322
0.00284627
0.00257535
0.00236013
0.00225878
0.00221168
0.00223564
0.00157021
1.8537e-05
6.99607e-05
0.000138436
0.000220499
0.000311032
0.00040997
0.00052021
0.000650067
0.000810625
0.00103038
0.00133884
0.00180688
0.00238467
0.00291221
0.00343303
0.00391482
0.00435449
0.00474266
0.00507348
0.00533508
0.00554821
0.00568863
0.00576881
0.00578818
0.00582867
0.00583905
0.00581351
0.00574619
0.0055951
0.00540169
0.00518862
0.00496162
0.00471941
0.00446846
0.00420358
0.00394082
0.00367647
0.00341158
0.00315677
0.00291247
0.0026762
0.00245219
0.00224753
0.00206065
0.00189777
0.0017813
0.00173634
0.00173159
0.00176084
0.00125868
1.23608e-05
4.37974e-05
8.19436e-05
0.000124765
0.000169734
0.000214235
0.000254159
0.000289986
0.000319883
0.000342354
0.000377414
0.000467408
0.000587076
0.000739499
0.000924611
0.00113694
0.00136526
0.00159674
0.00182382
0.00202106
0.00219618
0.00233565
0.00243556
0.00257127
0.00269258
0.00278158
0.00283647
0.00286462
0.00286483
0.00283774
0.00279617
0.00273268
0.00265128
0.00255892
0.00245036
0.00233427
0.00220984
0.00208239
0.0019538
0.0018245
0.00169735
0.00157664
0.00146912
0.00137173
0.00129488
0.00125008
0.0012461
0.00128121
0.00129313
0.000948094
8.00947e-06
2.73504e-05
4.95953e-05
7.35278e-05
9.75394e-05
0.000119898
0.000138884
0.000152419
0.000158419
0.000155708
0.000165253
0.000182663
0.000201133
0.000221458
0.000245806
0.00027513
0.000311418
0.000355972
0.000407109
0.000462001
0.000532273
0.000634055
0.000734606
0.000831859
0.00092199
0.00100376
0.00107325
0.00113015
0.00117243
0.00120498
0.00122718
0.0012337
0.00123302
0.00121955
0.00119761
0.00116802
0.00112979
0.00108672
0.00104
0.00099096
0.000941944
0.00089466
0.000853536
0.000819268
0.000801528
0.000799112
0.00082732
0.000886623
0.000885684
0.00065505
5.01293e-06
1.67536e-05
2.98511e-05
4.35743e-05
5.69679e-05
6.89559e-05
7.84066e-05
8.41819e-05
8.51083e-05
8.46023e-05
9.03105e-05
9.44553e-05
9.68251e-05
9.74164e-05
9.66748e-05
9.34056e-05
8.89473e-05
8.18882e-05
8.91744e-05
0.000105369
0.000125205
0.000148919
0.000175721
0.000205469
0.000237818
0.000270669
0.000302867
0.000334785
0.000362796
0.000388704
0.000412298
0.000431029
0.000445609
0.000456468
0.000463463
0.000465834
0.000465377
0.000461997
0.000455532
0.000447371
0.000439362
0.000432962
0.000431009
0.000433977
0.000446525
0.000469156
0.000514423
0.000564332
0.000555184
0.000407035
2.99339e-06
9.88349e-06
1.74402e-05
2.52262e-05
3.26785e-05
3.91418e-05
4.39038e-05
4.62268e-05
4.70466e-05
5.08327e-05
5.34561e-05
5.46968e-05
5.43304e-05
5.22318e-05
4.82834e-05
4.22458e-05
3.38689e-05
3.1597e-05
3.37558e-05
3.58537e-05
3.87182e-05
4.15375e-05
4.51024e-05
4.87138e-05
5.33841e-05
5.86164e-05
6.42834e-05
7.05217e-05
7.69642e-05
8.38931e-05
9.12765e-05
9.92565e-05
0.000106839
0.000113936
0.000121839
0.000129038
0.000135909
0.00014221
0.000147973
0.000154503
0.000161744
0.00017058
0.000182788
0.000200127
0.000222895
0.000251707
0.000292283
0.000323712
0.000313615
0.000219344
1.66745e-06
5.47276e-06
9.60549e-06
1.38067e-05
1.77402e-05
2.10039e-05
2.31471e-05
2.59317e-05
2.87451e-05
3.08714e-05
3.21458e-05
3.24077e-05
3.15104e-05
2.93098e-05
2.56636e-05
2.04695e-05
1.64777e-05
1.67036e-05
1.67286e-05
1.65398e-05
1.61052e-05
1.56748e-05
1.49954e-05
1.39649e-05
1.27519e-05
1.13647e-05
9.58492e-06
7.88245e-06
6.70273e-06
8.03826e-06
9.47594e-06
1.14755e-05
1.35786e-05
1.61659e-05
1.8819e-05
2.18495e-05
2.48333e-05
2.85634e-05
3.21787e-05
3.58818e-05
3.97734e-05
4.99586e-05
6.33713e-05
8.04336e-05
0.000101117
0.000124374
0.000150414
0.000164053
0.00015676
9.9386e-05
8.28969e-07
2.71745e-06
4.75077e-06
6.77422e-06
8.93298e-06
1.12202e-05
1.34111e-05
1.5385e-05
1.70137e-05
1.81696e-05
1.87284e-05
1.85675e-05
1.75719e-05
1.56317e-05
1.26386e-05
9.69849e-06
9.65733e-06
9.43674e-06
9.02071e-06
8.45611e-06
7.64351e-06
6.55333e-06
5.16032e-06
3.4412e-06
1.41005e-06
1.50372e-06
1.63826e-06
1.78169e-06
1.94293e-06
2.22875e-06
2.58235e-06
2.9975e-06
3.61343e-06
4.30089e-06
5.15257e-06
6.1818e-06
7.28176e-06
8.69302e-06
1.02071e-05
1.17569e-05
1.35415e-05
1.53816e-05
1.71901e-05
2.80102e-05
4.17176e-05
5.57469e-05
6.72639e-05
7.33543e-05
6.57115e-05
3.49765e-05
4.00682e-07
1.34609e-06
2.43408e-06
3.63681e-06
4.90814e-06
6.1865e-06
7.39839e-06
8.46139e-06
9.28809e-06
9.78838e-06
9.87153e-06
9.44893e-06
8.43241e-06
6.73663e-06
5.71325e-06
5.68813e-06
5.52649e-06
5.21316e-06
4.73122e-06
4.06206e-06
3.18279e-06
2.06852e-06
6.91899e-07
6.39282e-07
6.38915e-07
6.32559e-07
6.24123e-07
6.18334e-07
6.21468e-07
6.63402e-07
7.52437e-07
8.79476e-07
1.04812e-06
1.29106e-06
1.60858e-06
1.97885e-06
2.40027e-06
2.92646e-06
3.52034e-06
4.14968e-06
4.80651e-06
5.46181e-06
6.07549e-06
7.58919e-06
1.48655e-05
2.14869e-05
2.71181e-05
2.75874e-05
2.06579e-05
1.00286e-05
1.73313e-07
6.09864e-07
1.1317e-06
1.71638e-06
2.33034e-06
2.93156e-06
3.4719e-06
3.89839e-06
4.15447e-06
4.18069e-06
3.91517e-06
3.29622e-06
2.96944e-06
3.04111e-06
3.03188e-06
2.92997e-06
2.72275e-06
2.39591e-06
1.93332e-06
1.31704e-06
5.28552e-07
3.36329e-07
3.16055e-07
2.89734e-07
2.57993e-07
2.22213e-07
1.86858e-07
1.60753e-07
1.3939e-07
1.30058e-07
1.41455e-07
1.7766e-07
2.39419e-07
3.35206e-07
4.68126e-07
6.3256e-07
8.25899e-07
1.04281e-06
1.27635e-06
1.51719e-06
1.75446e-06
1.96389e-06
2.12181e-06
2.19164e-06
4.82419e-06
7.79374e-06
8.76196e-06
7.66323e-06
5.04652e-06
2.39349e-06
4.06052e-08
1.74454e-07
3.51708e-07
5.37958e-07
7.08459e-07
8.37467e-07
8.99268e-07
8.65348e-07
9.11126e-07
1.02023e-06
1.10728e-06
1.16443e-06
1.18356e-06
1.15668e-06
1.07542e-06
9.29796e-07
7.08117e-07
3.98334e-07
1.67258e-07
1.59423e-07
1.47181e-07
1.30843e-07
1.09069e-07
8.26595e-08
5.2426e-08
1.79254e-08
3.54093e-10
3.74305e-10
4.05319e-10
4.49426e-10
5.19915e-10
6.8034e-10
8.58682e-10
1.05194e-09
6.08275e-08
1.39109e-07
2.30394e-07
3.30472e-07
4.30547e-07
5.19081e-07
5.95114e-07
6.46416e-07
6.69936e-07
6.39035e-07
6.75011e-07
1.49222e-06
1.60722e-06
1.28478e-06
7.69114e-07
3.52976e-07
8.25148e-10
1.02519e-08
2.15249e-08
2.79398e-08
3.02097e-08
2.63868e-08
1.56218e-08
1.22684e-08
1.45316e-08
1.66049e-08
1.83314e-08
1.95422e-08
2.00708e-08
1.98017e-08
1.86759e-08
1.63265e-08
1.23904e-08
6.63561e-09
7.74325e-11
7.6831e-11
7.50288e-11
7.199e-11
6.78309e-11
6.29562e-11
5.79845e-11
5.37446e-11
5.13971e-11
5.19855e-11
5.60377e-11
6.40916e-11
7.66196e-11
9.32915e-11
1.13387e-10
1.36165e-10
1.60572e-10
1.85154e-10
2.0819e-10
2.27809e-10
2.41838e-10
2.48311e-10
2.4585e-10
2.08979e-08
3.90777e-08
4.76387e-08
4.7622e-08
4.10352e-08
3.00445e-08
1.93689e-08
1.01662e-08
5.86754e-09
)
;

boundaryField
{
    AXIS
    {
        type            empty;
    }
    OUTLET
    {
        type            calculated;
        value           nonuniform List<scalar> 
25
(
0.00378857
0.00375093
0.00366439
0.00353844
0.00337581
0.00318664
0.00296933
0.00275804
0.00262737
0.00248134
0.00231141
0.00210499
0.00185627
0.00157021
0.00125868
0.000948094
0.00065505
0.000407035
0.000219344
9.9386e-05
3.49765e-05
1.00286e-05
2.39349e-06
3.52976e-07
5.86754e-09
)
;
    }
    COFLOW
    {
        type            calculated;
        value           uniform 0;
    }
    PILOT
    {
        type            calculated;
        value           uniform 5.70963e-18;
    }
    FUEL
    {
        type            calculated;
        value           uniform 0.156;
    }
    WALL
    {
        type            calculated;
        value           nonuniform List<scalar> 
50
(
8.25148e-10
1.02519e-08
2.15249e-08
2.79398e-08
3.02097e-08
2.63868e-08
1.56218e-08
1.22684e-08
1.45316e-08
1.66049e-08
1.83314e-08
1.95422e-08
2.00708e-08
1.98017e-08
1.86759e-08
1.63265e-08
1.23904e-08
6.63561e-09
7.74325e-11
7.6831e-11
7.50288e-11
7.199e-11
6.78309e-11
6.29562e-11
5.79845e-11
5.37446e-11
5.13971e-11
5.19855e-11
5.60377e-11
6.40916e-11
7.66196e-11
9.32915e-11
1.13387e-10
1.36165e-10
1.60572e-10
1.85154e-10
2.0819e-10
2.27809e-10
2.41838e-10
2.48311e-10
2.4585e-10
2.08979e-08
3.90777e-08
4.76387e-08
4.7622e-08
4.10352e-08
3.00445e-08
1.93689e-08
1.01662e-08
5.86754e-09
)
;
    }
    front
    {
        type            wedge;
    }
    back
    {
        type            wedge;
    }
}


// ************************************************************************* //
