/*--------------------------------*- C++ -*----------------------------------*\
| =========                 |                                                 |
| \\      /  F ield         | OpenFOAM: The Open Source CFD Toolbox           |
|  \\    /   O peration     | Version:  2.4.x                                 |
|   \\  /    A nd           | Web:      www.OpenFOAM.org                      |
|    \\/     M anipulation  |                                                 |
\*---------------------------------------------------------------------------*/
FoamFile
{
    version     2.0;
    format      ascii;
    class       volScalarField;
    location    "0.1";
    object      chi;
}
// * * * * * * * * * * * * * * * * * * * * * * * * * * * * * * * * * * * * * //

dimensions      [0 0 -1 0 0 0 0];

internalField   nonuniform List<scalar> 
1250
(
0.0306913
0.210779
0.65786
1.5053
2.83055
4.54436
6.47445
8.4463
10.2238
11.7521
13.0163
13.8674
14.4628
14.7405
14.8547
14.7494
14.4274
13.9731
13.442
12.8502
12.2065
11.553
10.8972
10.2403
9.6129
9.00211
8.42595
7.87424
7.35906
6.87335
6.4216
5.99879
5.60737
5.24221
4.90473
4.59163
4.30148
4.03513
3.78765
3.56344
3.3556
3.16573
2.9998
2.83549
2.70617
2.58137
2.44369
2.46055
2.67547
2.97565
0.0360011
0.25475
0.818678
1.88965
3.50639
5.49492
7.64621
9.70011
11.5035
12.9763
14.1363
14.9067
15.3651
15.5629
15.5802
15.3393
14.9369
14.4232
13.8268
13.179
12.4982
11.8054
11.1164
10.44
9.78767
9.16189
8.56771
8.00489
7.47653
6.98191
6.52016
6.09031
5.69092
5.31993
4.97599
4.65734
4.36281
4.09158
3.84045
3.61238
3.40118
3.20865
3.03997
2.87311
2.74144
2.61501
2.4738
2.49122
2.70772
2.99625
0.0525481
0.407775
1.40011
3.21243
5.65495
8.30482
10.8204
12.9789
14.6773
15.9332
16.7987
17.2798
17.4661
17.4305
17.1264
16.6572
16.0702
15.3975
14.6653
13.902
13.1257
12.3531
11.5978
10.8674
10.1678
9.50262
8.87477
8.28364
7.73037
7.21387
6.73286
6.28571
5.87084
5.48578
5.12893
4.79863
4.49353
4.21275
3.95302
3.71731
3.49904
3.30033
3.12618
2.95349
2.81727
2.68701
2.5397
2.55517
2.77705
3.04154
0.110101
1.00331
3.57828
7.4278
11.3707
14.795
17.3871
19.286
20.3825
21.009
21.2446
21.1562
20.7815
20.2139
19.4883
18.6597
17.7752
16.8539
15.9135
14.9763
14.0563
13.165
12.3117
11.4999
10.7306
10.0052
9.32733
8.69406
8.10377
7.55479
7.04502
6.57217
6.13411
5.72813
5.35222
5.00469
4.68408
4.38931
4.11703
3.87022
3.64162
3.43404
3.25184
3.07075
2.92816
2.79193
2.63679
2.64787
2.87928
3.10941
0.555621
4.8124
12.8492
20.0855
24.8724
27.8483
28.9982
29.4879
29.1324
28.4385
27.4913
26.3955
25.1729
23.8849
22.5628
21.2485
19.9678
18.7182
17.5074
16.3471
15.2435
14.2005
13.2225
12.3068
11.4482
10.6468
9.90359
9.2157
8.57817
7.98742
7.44064
6.93462
6.46662
6.03387
5.63366
5.26418
4.92391
4.61147
4.32346
4.06271
3.82121
3.60262
3.41017
3.21866
3.06846
2.92428
2.75972
2.76273
3.01146
3.19697
12.1823
30.1631
43.0334
47.4286
48.4056
47.8283
45.5479
42.9332
40.1852
37.5443
35.0066
32.5917
30.2904
28.1291
26.1036
24.2277
22.4883
20.86
19.3393
17.9248
16.6118
15.3961
14.2756
13.2405
12.2803
11.3923
10.5735
9.82043
9.12745
8.48819
7.89812
7.35309
6.84995
6.38575
5.95744
5.56264
5.19969
4.86702
4.56106
4.28438
4.02817
3.79722
3.59279
3.38962
3.23114
3.07702
2.90263
2.9016
3.16021
3.30125
23.788
62.6087
75.9639
76.2399
72.7524
68.5345
62.4043
56.666
51.4328
46.7941
42.6181
38.863
35.4808
32.4508
29.7231
27.2887
25.0914
23.0828
21.2502
19.5787
18.0526
16.6606
15.3936
14.2351
13.1697
12.1916
11.2939
10.471
9.71741
9.02582
8.38912
7.80186
7.26069
6.76249
6.30407
5.88241
5.49539
5.1413
4.81641
4.52286
4.25117
4.00731
3.78979
3.57467
3.40777
3.24177
3.05863
3.05507
3.31758
3.41963
9.67056
55.4333
84.3629
89.5046
86.5921
81.1534
73.8431
66.6738
60.0738
54.1641
48.8558
44.1291
39.9361
36.2317
32.9461
30.0509
27.4719
25.1422
23.0408
21.1443
19.4296
17.8806
16.4803
15.2083
14.0453
12.9817
12.009
11.1194
10.3061
9.56226
8.87944
8.25035
7.67145
7.1395
6.65121
6.20331
5.79284
5.41784
5.07444
4.76434
4.47752
4.2211
3.99017
3.76376
3.58874
3.40915
3.22001
3.21402
3.47806
3.54338
3.85754
32.1414
65.7342
81.8213
84.5815
82.2784
76.8458
70.3327
63.9582
57.8737
52.3394
47.341
42.8586
38.8569
35.2924
32.1362
29.3206
26.7822
24.4991
22.4455
20.5962
18.9315
17.4288
16.0676
14.8257
13.6908
12.6552
11.7094
10.8454
10.0548
9.33086
8.66472
8.05223
7.49012
6.97515
6.50381
6.07263
5.67915
5.31923
4.99422
4.69382
4.42608
4.18226
3.94625
3.76358
3.56933
3.37848
3.37181
3.63213
3.66166
1.79463
12.5447
34.9689
55.9852
67.4814
71.1344
70.4797
66.8934
62.6514
57.5981
52.7674
48.0838
43.781
39.8848
36.3691
33.2022
30.3371
27.7486
25.4168
23.3131
21.4082
19.6872
18.1293
16.7154
15.4247
14.2437
13.1665
12.1829
11.2837
10.4596
9.70441
9.01028
8.3725
7.78739
7.25206
6.76267
6.31538
5.90772
5.53483
5.19792
4.88661
4.60956
4.35439
4.11128
3.92152
3.71268
3.52573
3.52016
3.76708
3.76688
0.17033
2.59127
11.4604
26.7314
41.5443
51.1654
55.7542
56.4472
55.3499
52.3837
49.4379
45.8409
42.3929
39.0921
35.9793
33.0864
30.3989
27.9251
25.6686
23.6132
21.7416
20.0364
18.4844
17.0675
15.7689
14.5774
13.4898
12.4945
11.5813
10.7422
9.97062
9.26168
8.61047
8.0126
7.46582
6.96587
6.50877
6.09238
5.7112
5.36636
5.04762
4.76391
4.49964
4.25239
4.056
3.83425
3.65634
3.65544
3.87979
3.84595
0.0455564
0.515195
2.5657
8.00614
17.1022
27.3437
35.3508
40.1128
42.3707
42.4928
41.7876
39.9697
38.0341
35.8281
33.4719
31.2131
29.0175
26.924
24.9601
23.1226
21.4153
19.8302
18.3705
17.0232
15.7743
14.6224
13.5617
12.5847
11.6852
10.8554
10.0891
9.38423
8.73604
8.13967
7.5939
7.09381
6.63584
6.21807
5.83491
5.4876
5.16616
4.87932
4.60924
4.36154
4.1591
3.92767
3.76467
3.77749
3.96186
3.89319
0.020334
0.151509
0.587119
1.76239
4.45257
9.16311
15.3814
21.3174
25.8444
28.6875
30.2389
30.6216
30.3614
29.6159
28.4227
27.192
25.7828
24.3053
22.8693
21.4559
20.0849
18.7659
17.521
16.3437
15.2338
14.1956
13.2253
12.3207
11.4792
10.6975
9.97092
9.29983
8.681
8.10903
7.5838
7.09991
6.65499
6.2476
5.87205
5.53037
5.21312
4.92855
4.65826
4.41466
4.20749
3.97363
3.83057
3.8543
4.00508
3.89554
0.0112784
0.0622632
0.185049
0.449943
1.00577
2.12893
4.1539
7.1418
10.7435
14.1801
16.9961
19.0153
20.305
20.994
21.1494
20.9712
20.5702
19.9022
19.1904
18.3775
17.4937
16.5844
15.6949
14.8104
13.9456
13.1077
12.3069
11.545
10.8227
10.1422
9.50374
8.90862
8.35382
7.83719
7.35836
6.91301
6.50091
6.12062
5.76719
5.44336
5.14105
4.86718
4.60579
4.3732
4.16576
3.94703
3.83984
3.8564
3.97222
3.83076
0.00692894
0.0315102
0.0773215
0.157909
0.296948
0.538492
0.963771
1.69649
2.85065
4.45342
6.35323
8.30932
10.0734
11.5371
12.6355
13.3907
13.8609
14.0637
14.0714
13.9131
13.635
13.2454
12.8154
12.3129
11.7833
11.2267
10.677
10.1298
9.59374
9.07415
8.5777
8.10675
7.6592
7.23639
6.8363
6.45917
6.10571
5.77367
5.46142
5.17157
4.89864
4.64723
4.40735
4.19348
3.99759
3.81725
3.74819
3.73921
3.8475
3.67074
0.00449012
0.0179605
0.0389374
0.0705663
0.117444
0.187093
0.292326
0.453825
0.703461
1.08384
1.64143
2.39193
3.29565
4.30184
5.31929
6.27175
7.11018
7.8033
8.33789
8.71451
8.95158
9.05945
9.06786
8.97877
8.82131
8.60757
8.36312
8.07735
7.77859
7.46587
7.15366
6.84726
6.54346
6.24656
5.95561
5.6749
5.40424
5.14355
4.89428
4.65719
4.43118
4.2192
4.01744
3.8332
3.67972
3.55349
3.49935
3.49923
3.59112
3.39112
0.0029713
0.010961
0.0219772
0.0368678
0.0566919
0.0829456
0.117944
0.165209
0.229996
0.31991
0.445386
0.619854
0.857596
1.16912
1.5524
2.00162
2.50185
3.02859
3.55127
4.04056
4.47657
4.84518
5.13954
5.35588
5.49889
5.57688
5.6011
5.57679
5.51433
5.41769
5.30761
5.18018
5.03483
4.88062
4.71837
4.55203
4.38208
4.21238
4.04451
3.8788
3.71895
3.56552
3.42195
3.28964
3.19118
3.12308
3.08993
3.11794
3.19429
2.97152
0.00197461
0.00693621
0.0132621
0.0212069
0.0310519
0.0431401
0.0579352
0.0760977
0.0985744
0.126681
0.162285
0.20767
0.265846
0.340324
0.434614
0.554009
0.702069
0.88036
1.08819
1.32202
1.57593
1.84074
2.10388
2.35476
2.58261
2.78229
2.9494
3.08232
3.18178
3.24873
3.28906
3.30559
3.30019
3.27624
3.23627
3.18286
3.11768
3.04828
2.97061
2.88945
2.80913
2.73103
2.66262
2.59898
2.55827
2.54212
2.56762
2.62765
2.68906
2.40534
0.00130231
0.00445387
0.00829361
0.0129105
0.0183882
0.0248112
0.032274
0.0408904
0.0508306
0.0623215
0.0756895
0.0913152
0.109703
0.131457
0.157373
0.188331
0.22545
0.270117
0.323813
0.387434
0.463408
0.551704
0.651199
0.761631
0.879416
1.00293
1.12786
1.24919
1.36355
1.46726
1.55861
1.63686
1.7022
1.75477
1.79545
1.82478
1.84422
1.85528
1.85987
1.85873
1.85528
1.85129
1.85245
1.86155
1.884
1.9178
1.98685
2.06004
2.06217
1.71625
0.00084252
0.00285201
0.00525775
0.00810148
0.0114113
0.0152047
0.0194928
0.0242569
0.029533
0.035319
0.0416445
0.0485527
0.0561158
0.064416
0.0735729
0.0837361
0.0950878
0.107891
0.122459
0.139158
0.158361
0.180507
0.206114
0.235762
0.269295
0.307964
0.351425
0.398732
0.450557
0.505522
0.561745
0.618807
0.676077
0.732801
0.788317
0.841554
0.892466
0.940404
0.986071
1.02914
1.07105
1.114
1.15964
1.21099
1.26662
1.33128
1.40421
1.43901
1.37892
0.996095
0.000525924
0.00179121
0.00332533
0.00515361
0.00728635
0.00971862
0.0124328
0.0154033
0.0185948
0.0219731
0.0255184
0.0292018
0.0330204
0.036939
0.0409731
0.0451525
0.0495091
0.0540869
0.0589532
0.0641859
0.069865
0.0760581
0.0829425
0.0907706
0.0997525
0.110022
0.121713
0.135268
0.152056
0.172219
0.194579
0.220016
0.248756
0.280654
0.315482
0.35277
0.392284
0.433513
0.476542
0.520807
0.566816
0.615344
0.665623
0.718313
0.770774
0.82241
0.849046
0.830539
0.720691
0.389732
0.000307491
0.00108388
0.0020771
0.00330654
0.00477063
0.00645015
0.00831341
0.0103286
0.0124443
0.0146192
0.0168582
0.0190597
0.0212344
0.02336
0.0254232
0.0274235
0.0293694
0.0312735
0.0331547
0.0350339
0.0369324
0.0388973
0.0410078
0.0433743
0.0461426
0.0493633
0.0530984
0.0577883
0.0638018
0.0718022
0.0815724
0.092783
0.10614
0.121662
0.13937
0.159213
0.181161
0.205095
0.231029
0.258664
0.287926
0.318489
0.348797
0.377628
0.400187
0.408309
0.395073
0.341947
0.227522
0.0939728
0.000157787
0.000626514
0.00130416
0.00219992
0.00328972
0.00453732
0.00591122
0.00734965
0.00881846
0.0102878
0.0117321
0.0131257
0.0144488
0.0156737
0.0167903
0.0178
0.0187138
0.0195365
0.0202777
0.0209217
0.0214619
0.0219554
0.0224619
0.0230681
0.0238706
0.024986
0.0265055
0.028445
0.0311965
0.0350804
0.0399773
0.0456649
0.0524611
0.0603333
0.069248
0.0791475
0.0899245
0.101392
0.113367
0.125512
0.137417
0.148291
0.156505
0.160263
0.158731
0.147915
0.120853
0.0842579
0.0454819
0.0186284
6.23076e-05
0.000377266
0.000941246
0.00169868
0.00258123
0.00356911
0.00459415
0.00561045
0.00662215
0.00760842
0.00855079
0.00943269
0.0102351
0.0109105
0.0114476
0.0119084
0.0123391
0.0126812
0.0129522
0.0130884
0.01293
0.0127791
0.0126236
0.0125479
0.0126348
0.0129238
0.0135519
0.0146356
0.0161433
0.0182411
0.020852
0.0238887
0.0275021
0.0315751
0.0358877
0.0404695
0.0452402
0.0498011
0.0537058
0.0567048
0.0584578
0.0585168
0.0572844
0.0532991
0.0463637
0.0373204
0.026774
0.0169416
0.00902795
0.00378887
2.35543e-05
0.000409872
0.000921695
0.00145487
0.00204214
0.00267393
0.00330783
0.00398259
0.00470127
0.00540794
0.00608372
0.00670962
0.00726834
0.00774905
0.00813631
0.00840165
0.00851657
0.00847582
0.0082852
0.00799099
0.00764616
0.00727314
0.00690862
0.00660504
0.00641549
0.00638931
0.00657872
0.00701659
0.00770722
0.0086636
0.00990548
0.0113983
0.0130801
0.014892
0.0167547
0.0185631
0.020193
0.0215146
0.0223625
0.0225964
0.0221069
0.0208411
0.0187521
0.0160148
0.0128641
0.00959895
0.00643004
0.00393048
0.00208997
0.00100893
)
;

boundaryField
{
    AXIS
    {
        type            empty;
    }
    OUTLET
    {
        type            zeroGradient;
    }
    COFLOW
    {
        type            calculated;
        value           uniform 0;
    }
    PILOT
    {
        type            calculated;
        value           uniform 0;
    }
    FUEL
    {
        type            calculated;
        value           uniform 0;
    }
    WALL
    {
        type            zeroGradient;
    }
    front
    {
        type            wedge;
    }
    back
    {
        type            wedge;
    }
}


// ************************************************************************* //
