/*--------------------------------*- C++ -*----------------------------------*\
| =========                 |                                                 |
| \\      /  F ield         | OpenFOAM: The Open Source CFD Toolbox           |
|  \\    /   O peration     | Version:  2.4.x                                 |
|   \\  /    A nd           | Web:      www.OpenFOAM.org                      |
|    \\/     M anipulation  |                                                 |
\*---------------------------------------------------------------------------*/
FoamFile
{
    version     2.0;
    format      ascii;
    class       volScalarField;
    location    "0.1";
    object      CN;
}
// * * * * * * * * * * * * * * * * * * * * * * * * * * * * * * * * * * * * * //

dimensions      [0 0 0 0 0 0 0];

internalField   nonuniform List<scalar> 
1250
(
9.74577e-12
3.82042e-11
7.52865e-11
1.23078e-10
1.89289e-10
2.79213e-10
3.9535e-10
5.36648e-10
6.95605e-10
8.60689e-10
1.02764e-09
1.1717e-09
1.31706e-09
1.45835e-09
1.60079e-09
1.73987e-09
1.84334e-09
1.90126e-09
1.96287e-09
2.03347e-09
2.12575e-09
2.21305e-09
2.27607e-09
2.26897e-09
2.27364e-09
2.31013e-09
2.35918e-09
2.41247e-09
2.4783e-09
2.56149e-09
2.66307e-09
2.77648e-09
2.87739e-09
2.94224e-09
3.02774e-09
3.13795e-09
3.26657e-09
3.41585e-09
3.58715e-09
3.77414e-09
3.97994e-09
4.19041e-09
4.41246e-09
4.63695e-09
4.85405e-09
5.08733e-09
5.25051e-09
5.36811e-09
5.46842e-09
4.99419e-09
1.10463e-11
4.33874e-11
8.43573e-11
1.39142e-10
2.16744e-10
3.21408e-10
4.54333e-10
6.10237e-10
7.74333e-10
9.48458e-10
1.11922e-09
1.26693e-09
1.41194e-09
1.55496e-09
1.69738e-09
1.83285e-09
1.93051e-09
1.98659e-09
2.04576e-09
2.12056e-09
2.20896e-09
2.28146e-09
2.34263e-09
2.33866e-09
2.35736e-09
2.39413e-09
2.43798e-09
2.48927e-09
2.55427e-09
2.63787e-09
2.73806e-09
2.84991e-09
2.95849e-09
3.02172e-09
3.10634e-09
3.21445e-09
3.34127e-09
3.48881e-09
3.65763e-09
3.84168e-09
4.04375e-09
4.24976e-09
4.46767e-09
4.68661e-09
4.89846e-09
5.1254e-09
5.27939e-09
5.38934e-09
5.47241e-09
4.96628e-09
1.49874e-11
5.84743e-11
1.12822e-10
1.92469e-10
3.07186e-10
4.54259e-10
6.237e-10
8.00171e-10
9.86319e-10
1.17802e-09
1.35268e-09
1.5019e-09
1.64709e-09
1.78913e-09
1.92333e-09
2.05239e-09
2.13512e-09
2.184e-09
2.24296e-09
2.31647e-09
2.38405e-09
2.43918e-09
2.49755e-09
2.51032e-09
2.54561e-09
2.57983e-09
2.61391e-09
2.66006e-09
2.72333e-09
2.80653e-09
2.90357e-09
3.01134e-09
3.12869e-09
3.19522e-09
3.27819e-09
3.38112e-09
3.5035e-09
3.64724e-09
3.80971e-09
3.98735e-09
4.18131e-09
4.37741e-09
4.58635e-09
4.79295e-09
4.99376e-09
5.20594e-09
5.33448e-09
5.42324e-09
5.46732e-09
4.90512e-09
2.63374e-11
9.98805e-11
2.05015e-10
3.6946e-10
5.73353e-10
7.84736e-10
1.00139e-09
1.21886e-09
1.42633e-09
1.62976e-09
1.79464e-09
1.93439e-09
2.0654e-09
2.19027e-09
2.30867e-09
2.42141e-09
2.47603e-09
2.51593e-09
2.56666e-09
2.60999e-09
2.65119e-09
2.69833e-09
2.77569e-09
2.81069e-09
2.83295e-09
2.86269e-09
2.88544e-09
2.92634e-09
2.98907e-09
3.06711e-09
3.15742e-09
3.25752e-09
3.36838e-09
3.46059e-09
3.53516e-09
3.62995e-09
3.74508e-09
3.88014e-09
4.03266e-09
4.19967e-09
4.37954e-09
4.56118e-09
4.75537e-09
4.94176e-09
5.12393e-09
5.3096e-09
5.40812e-09
5.4668e-09
5.45642e-09
4.80767e-09
7.6459e-11
3.02745e-10
6.42581e-10
1.00165e-09
1.32754e-09
1.61472e-09
1.84943e-09
2.07211e-09
2.26165e-09
2.43745e-09
2.54591e-09
2.64136e-09
2.72972e-09
2.81327e-09
2.89401e-09
2.97442e-09
2.98689e-09
2.99448e-09
3.00405e-09
3.0216e-09
3.06348e-09
3.12805e-09
3.20431e-09
3.21623e-09
3.21234e-09
3.22348e-09
3.26053e-09
3.29805e-09
3.35214e-09
3.41888e-09
3.49703e-09
3.58747e-09
3.69254e-09
3.80327e-09
3.86905e-09
3.9519e-09
4.05427e-09
4.17608e-09
4.31419e-09
4.46466e-09
4.62476e-09
4.78746e-09
4.96093e-09
5.12008e-09
5.27678e-09
5.42636e-09
5.47662e-09
5.50633e-09
5.41995e-09
4.67528e-09
1.70723e-09
2.20877e-09
2.16226e-09
2.24937e-09
2.37651e-09
2.51979e-09
2.67389e-09
2.8479e-09
3.02999e-09
3.21037e-09
3.3472e-09
3.50178e-09
3.67194e-09
3.70354e-09
3.71799e-09
3.73594e-09
3.67781e-09
3.64284e-09
3.63112e-09
3.63914e-09
3.65745e-09
3.68406e-09
3.71656e-09
3.7073e-09
3.69082e-09
3.69976e-09
3.72971e-09
3.77079e-09
3.80645e-09
3.85636e-09
3.92566e-09
4.00261e-09
4.08742e-09
4.17922e-09
4.26308e-09
4.32774e-09
4.41352e-09
4.51726e-09
4.63417e-09
4.76241e-09
4.89827e-09
5.03674e-09
5.18296e-09
5.30618e-09
5.42966e-09
5.53092e-09
5.53303e-09
5.52191e-09
5.34823e-09
4.50873e-09
7.07258e-09
4.60179e-09
3.82251e-09
3.59171e-09
3.54135e-09
3.60998e-09
3.69582e-09
3.8112e-09
3.94896e-09
4.07319e-09
4.1852e-09
4.31787e-09
4.46671e-09
4.6315e-09
4.78282e-09
4.70065e-09
4.5869e-09
4.49797e-09
4.43042e-09
4.37993e-09
4.35004e-09
4.33677e-09
4.34004e-09
4.32593e-09
4.29072e-09
4.27748e-09
4.28467e-09
4.31564e-09
4.35398e-09
4.38445e-09
4.42585e-09
4.47707e-09
4.53631e-09
4.60121e-09
4.66978e-09
4.72983e-09
4.79443e-09
4.87501e-09
4.96727e-09
5.06961e-09
5.17745e-09
5.28653e-09
5.39552e-09
5.4744e-09
5.55536e-09
5.60519e-09
5.5545e-09
5.50063e-09
5.23575e-09
4.31685e-09
5.37429e-09
5.60052e-09
4.88639e-09
4.69572e-09
4.61814e-09
4.68279e-09
4.75607e-09
4.84387e-09
4.94697e-09
5.04411e-09
5.14387e-09
5.25771e-09
5.38737e-09
5.52915e-09
5.68533e-09
5.83896e-09
5.65558e-09
5.49349e-09
5.36258e-09
5.2574e-09
5.1745e-09
5.11191e-09
5.0675e-09
5.02804e-09
4.97142e-09
4.93461e-09
4.91867e-09
4.92042e-09
4.93953e-09
4.95349e-09
4.96514e-09
4.98352e-09
5.00957e-09
5.04238e-09
5.0808e-09
5.1212e-09
5.16314e-09
5.21643e-09
5.2812e-09
5.3564e-09
5.43091e-09
5.50236e-09
5.56605e-09
5.59475e-09
5.63837e-09
5.62673e-09
5.52833e-09
5.423e-09
5.07396e-09
4.10824e-09
2.13133e-09
4.67465e-09
4.47306e-09
4.82959e-09
5.13293e-09
5.34429e-09
5.54095e-09
5.68532e-09
5.81777e-09
5.95083e-09
6.07072e-09
6.1901e-09
6.31387e-09
6.4416e-09
6.57801e-09
6.72019e-09
6.7691e-09
6.54581e-09
6.35531e-09
6.19165e-09
6.04981e-09
5.93167e-09
5.83399e-09
5.75104e-09
5.66363e-09
5.60201e-09
5.56174e-09
5.53483e-09
5.52477e-09
5.52502e-09
5.50191e-09
5.48679e-09
5.47805e-09
5.476e-09
5.47342e-09
5.47629e-09
5.48366e-09
5.51114e-09
5.54783e-09
5.58805e-09
5.62141e-09
5.64654e-09
5.66399e-09
5.64835e-09
5.64528e-09
5.57514e-09
5.43132e-09
5.28471e-09
4.86527e-09
3.88944e-09
4.88216e-10
1.50184e-09
2.88935e-09
3.8504e-09
4.66154e-09
5.27737e-09
5.72581e-09
6.05843e-09
6.37213e-09
6.65216e-09
6.88059e-09
7.07006e-09
7.21655e-09
7.33828e-09
7.45696e-09
7.58812e-09
7.73203e-09
7.52167e-09
7.28824e-09
7.07388e-09
6.87848e-09
6.70436e-09
6.54899e-09
6.41403e-09
6.30786e-09
6.2211e-09
6.15265e-09
6.09855e-09
6.05886e-09
6.02813e-09
5.99035e-09
5.93586e-09
5.88986e-09
5.85102e-09
5.81986e-09
5.78744e-09
5.75738e-09
5.7225e-09
5.71554e-09
5.71959e-09
5.71718e-09
5.70396e-09
5.67521e-09
5.61951e-09
5.57452e-09
5.44861e-09
5.27536e-09
5.08576e-09
4.6209e-09
3.64099e-09
4.43755e-11
2.68742e-10
8.24303e-10
2.19264e-09
3.42622e-09
4.38549e-09
5.15862e-09
5.76917e-09
6.28059e-09
6.70038e-09
7.1132e-09
7.43899e-09
7.71303e-09
7.94961e-09
8.15345e-09
8.34814e-09
8.52378e-09
8.30914e-09
8.03791e-09
7.78299e-09
7.54638e-09
7.33031e-09
7.13139e-09
6.95108e-09
6.82277e-09
6.72497e-09
6.63761e-09
6.56198e-09
6.4975e-09
6.43997e-09
6.38936e-09
6.30519e-09
6.21887e-09
6.14147e-09
6.06636e-09
5.99588e-09
5.92635e-09
5.86172e-09
5.78621e-09
5.74301e-09
5.70411e-09
5.65577e-09
5.58674e-09
5.49524e-09
5.41062e-09
5.23366e-09
5.03794e-09
4.82413e-09
4.37686e-09
3.36461e-09
2.09996e-11
8.50694e-11
1.99603e-10
5.47758e-10
1.37155e-09
2.73426e-09
3.86991e-09
4.73822e-09
5.49342e-09
6.12456e-09
6.62998e-09
7.06359e-09
7.42828e-09
7.73186e-09
8.0308e-09
8.40366e-09
8.56004e-09
8.41605e-09
8.22998e-09
8.03334e-09
7.83174e-09
7.63256e-09
7.44024e-09
7.25585e-09
7.11566e-09
7.01919e-09
6.92515e-09
6.83493e-09
6.74948e-09
6.66937e-09
6.595e-09
6.48687e-09
6.37673e-09
6.27204e-09
6.16952e-09
6.06766e-09
5.96948e-09
5.86813e-09
5.76772e-09
5.66116e-09
5.55989e-09
5.48087e-09
5.37289e-09
5.24913e-09
5.12856e-09
4.91936e-09
4.71707e-09
4.49299e-09
4.06641e-09
3.0502e-09
1.00545e-11
3.90456e-11
7.80814e-11
1.52947e-10
3.33344e-10
7.55179e-10
1.48416e-09
2.48028e-09
3.56864e-09
4.58855e-09
5.43188e-09
6.06187e-09
6.60219e-09
6.97808e-09
7.23653e-09
7.44453e-09
7.55422e-09
7.58734e-09
7.57486e-09
7.51982e-09
7.43665e-09
7.33091e-09
7.21246e-09
7.08734e-09
6.98042e-09
6.91148e-09
6.8368e-09
6.75876e-09
6.67888e-09
6.59903e-09
6.5173e-09
6.39863e-09
6.28172e-09
6.16303e-09
6.04405e-09
5.92649e-09
5.80735e-09
5.6839e-09
5.5596e-09
5.42999e-09
5.29697e-09
5.15699e-09
5.01072e-09
4.86517e-09
4.71413e-09
4.49489e-09
4.30862e-09
4.09655e-09
3.65696e-09
2.6942e-09
5.60487e-12
2.11596e-11
4.14448e-11
6.93159e-11
1.1621e-10
1.99729e-10
3.61637e-10
6.69096e-10
1.16878e-09
1.80538e-09
2.51789e-09
3.22774e-09
3.87703e-09
4.43949e-09
4.91822e-09
5.32254e-09
5.64341e-09
5.88798e-09
6.06846e-09
6.19375e-09
6.27042e-09
6.30069e-09
6.3021e-09
6.27831e-09
6.25345e-09
6.23906e-09
6.21177e-09
6.17457e-09
6.12961e-09
6.07823e-09
5.99594e-09
5.90092e-09
5.80041e-09
5.69606e-09
5.58393e-09
5.46844e-09
5.34832e-09
5.22474e-09
5.09321e-09
4.95864e-09
4.81797e-09
4.67311e-09
4.51528e-09
4.35383e-09
4.18493e-09
3.976e-09
3.80884e-09
3.57941e-09
3.16077e-09
2.28203e-09
3.53887e-12
1.28917e-11
2.47302e-11
3.99266e-11
5.92487e-11
8.58562e-11
1.2514e-10
1.88472e-10
2.94965e-10
4.72581e-10
7.44701e-10
1.101e-09
1.51465e-09
1.94722e-09
2.38508e-09
2.80703e-09
3.20088e-09
3.55599e-09
3.87291e-09
4.15118e-09
4.38297e-09
4.56249e-09
4.70892e-09
4.81627e-09
4.89674e-09
4.95383e-09
4.99641e-09
5.02623e-09
5.02575e-09
5.00717e-09
4.97789e-09
4.93724e-09
4.88407e-09
4.82067e-09
4.74244e-09
4.65813e-09
4.56274e-09
4.4581e-09
4.34441e-09
4.22237e-09
4.09338e-09
3.95727e-09
3.80885e-09
3.65944e-09
3.50312e-09
3.32783e-09
3.18731e-09
2.9594e-09
2.60755e-09
1.86181e-09
2.38787e-12
8.41603e-12
1.57638e-11
2.46171e-11
3.5395e-11
4.86986e-11
6.44922e-11
8.5577e-11
1.14102e-10
1.54778e-10
2.12163e-10
2.89462e-10
4.0119e-10
5.54561e-10
7.5047e-10
9.83664e-10
1.2441e-09
1.52063e-09
1.80119e-09
2.07296e-09
2.32954e-09
2.5646e-09
2.77628e-09
2.94066e-09
3.08093e-09
3.20231e-09
3.30934e-09
3.40098e-09
3.47536e-09
3.53137e-09
3.56805e-09
3.59066e-09
3.5969e-09
3.5883e-09
3.5632e-09
3.52616e-09
3.47373e-09
3.41203e-09
3.33966e-09
3.25537e-09
3.16408e-09
3.06399e-09
2.95638e-09
2.84409e-09
2.72938e-09
2.60148e-09
2.48376e-09
2.28462e-09
2.01902e-09
1.4365e-09
1.66279e-12
5.71753e-12
1.05426e-11
1.61787e-11
2.27272e-11
3.03694e-11
3.93928e-11
4.9928e-11
6.20644e-11
7.7213e-11
9.31651e-11
1.11751e-10
1.36212e-10
1.6896e-10
2.13579e-10
2.73708e-10
3.53181e-10
4.5453e-10
5.76894e-10
7.17359e-10
8.65641e-10
1.01302e-09
1.16079e-09
1.30539e-09
1.44395e-09
1.57559e-09
1.69827e-09
1.81156e-09
1.9149e-09
2.00785e-09
2.08995e-09
2.15804e-09
2.21178e-09
2.25093e-09
2.27495e-09
2.2857e-09
2.28238e-09
2.26819e-09
2.24245e-09
2.20671e-09
2.1647e-09
2.11193e-09
2.05386e-09
1.98997e-09
1.92538e-09
1.85249e-09
1.77596e-09
1.65061e-09
1.46177e-09
1.03424e-09
1.17109e-12
3.96106e-12
7.23079e-12
1.09915e-11
1.52688e-11
2.01107e-11
2.55944e-11
3.18334e-11
3.89868e-11
4.64883e-11
5.27996e-11
5.98326e-11
6.78228e-11
7.71183e-11
8.85008e-11
1.02319e-10
1.20552e-10
1.435e-10
1.70549e-10
2.03117e-10
2.43217e-10
2.91611e-10
3.4763e-10
4.11001e-10
4.80911e-10
5.55378e-10
6.33017e-10
7.13827e-10
7.934e-10
8.71849e-10
9.46542e-10
1.01472e-09
1.0762e-09
1.12985e-09
1.1753e-09
1.21167e-09
1.24044e-09
1.26114e-09
1.27323e-09
1.27746e-09
1.27618e-09
1.26723e-09
1.25514e-09
1.23813e-09
1.21784e-09
1.19087e-09
1.16111e-09
1.09951e-09
9.75797e-10
6.77792e-10
8.22513e-13
2.75518e-12
5.00219e-12
7.57051e-12
1.04687e-11
1.37104e-11
1.73174e-11
2.13207e-11
2.55233e-11
2.92332e-11
3.30149e-11
3.68707e-11
4.06356e-11
4.44532e-11
4.85742e-11
5.30563e-11
5.79891e-11
6.32254e-11
6.86568e-11
7.47031e-11
8.26131e-11
9.16315e-11
1.03189e-10
1.16606e-10
1.33903e-10
1.5469e-10
1.79071e-10
2.07421e-10
2.39047e-10
2.73742e-10
3.1064e-10
3.49487e-10
3.87857e-10
4.25092e-10
4.63665e-10
4.99802e-10
5.3389e-10
5.64566e-10
5.9136e-10
6.15828e-10
6.36768e-10
6.53658e-10
6.68318e-10
6.79188e-10
6.87887e-10
6.9211e-10
6.91731e-10
6.64574e-10
5.83652e-10
3.9174e-10
5.68424e-13
1.89659e-12
3.43927e-12
5.2041e-12
7.19721e-12
9.42381e-12
1.18902e-11
1.42828e-11
1.66287e-11
1.89752e-11
2.12969e-11
2.35723e-11
2.57891e-11
2.79391e-11
3.00198e-11
3.1985e-11
3.36477e-11
3.47679e-11
3.57499e-11
3.65987e-11
3.72891e-11
3.83347e-11
3.94958e-11
4.06698e-11
4.23527e-11
4.49501e-11
4.78344e-11
5.27071e-11
5.89847e-11
6.90753e-11
8.00279e-11
9.41485e-11
1.09068e-10
1.26483e-10
1.44369e-10
1.64024e-10
1.83496e-10
2.05755e-10
2.27447e-10
2.49121e-10
2.71316e-10
2.92142e-10
3.12201e-10
3.30826e-10
3.47829e-10
3.62581e-10
3.71096e-10
3.55168e-10
3.08006e-10
1.91114e-10
3.79551e-13
1.26955e-12
2.31113e-12
3.51331e-12
4.8317e-12
6.23412e-12
7.71244e-12
9.23949e-12
1.07861e-11
1.23239e-11
1.38267e-11
1.52691e-11
1.66302e-11
1.78919e-11
1.90386e-11
1.99531e-11
2.03678e-11
2.05288e-11
2.0416e-11
2.0065e-11
1.94445e-11
1.85321e-11
1.73138e-11
1.57819e-11
1.39833e-11
1.47623e-11
1.58619e-11
1.70742e-11
1.8481e-11
2.08462e-11
2.38166e-11
2.73509e-11
3.2341e-11
3.79577e-11
4.47414e-11
5.2749e-11
6.13357e-11
7.17426e-11
8.28489e-11
9.42626e-11
1.06969e-10
1.20085e-10
1.33182e-10
1.47608e-10
1.6138e-10
1.72123e-10
1.74097e-10
1.6457e-10
1.35968e-10
7.27705e-11
2.26855e-13
7.66626e-13
1.40253e-12
2.13341e-12
2.95149e-12
3.84365e-12
4.79277e-12
5.77892e-12
6.78071e-12
7.77568e-12
8.74252e-12
9.66048e-12
1.05087e-11
1.12689e-11
1.17993e-11
1.20485e-11
1.20925e-11
1.19086e-11
1.14724e-11
1.07579e-11
9.73257e-12
8.36317e-12
6.61534e-12
6.54784e-12
6.49451e-12
6.3925e-12
6.28133e-12
6.20714e-12
6.23009e-12
6.59893e-12
7.4004e-12
8.56706e-12
1.01228e-11
1.23009e-11
1.50961e-11
1.83453e-11
2.2034e-11
2.65007e-11
3.14924e-11
3.6787e-11
4.23302e-11
4.7904e-11
5.32094e-11
5.84075e-11
6.58216e-11
7.01386e-11
7.08726e-11
6.37952e-11
4.57368e-11
2.24816e-11
1.11938e-13
3.97722e-13
7.52094e-13
1.17303e-12
1.65408e-12
2.18548e-12
2.75569e-12
3.35142e-12
3.958e-12
4.56016e-12
5.14212e-12
5.68896e-12
6.12327e-12
6.41416e-12
6.58207e-12
6.6079e-12
6.47174e-12
6.15124e-12
5.62184e-12
4.85652e-12
3.82809e-12
3.47146e-12
3.26733e-12
3.00179e-12
2.68137e-12
2.32033e-12
1.96379e-12
1.69085e-12
1.47694e-12
1.39088e-12
1.51403e-12
1.8817e-12
2.49769e-12
3.43256e-12
4.70333e-12
6.25748e-12
8.07061e-12
1.00951e-11
1.22702e-11
1.45156e-11
1.67382e-11
1.87155e-11
2.02414e-11
2.09988e-11
2.34469e-11
2.51288e-11
2.36898e-11
1.89933e-11
1.20273e-11
5.65641e-12
3.30538e-14
1.45466e-13
3.10798e-13
5.14307e-13
7.49845e-13
1.01152e-12
1.29451e-12
1.59173e-12
1.87671e-12
2.13888e-12
2.37254e-12
2.56462e-12
2.70154e-12
2.76983e-12
2.75504e-12
2.64039e-12
2.40685e-12
2.03521e-12
1.7239e-12
1.64533e-12
1.52178e-12
1.35651e-12
1.13591e-12
8.68248e-13
5.61897e-13
2.12419e-13
3.50539e-14
3.70617e-14
4.0143e-14
4.45273e-14
5.13752e-14
6.60446e-14
8.24217e-14
1.00229e-13
7.0373e-13
1.48459e-12
2.38943e-12
3.37845e-12
4.36721e-12
5.24399e-12
6.00427e-12
6.53226e-12
6.80451e-12
6.5607e-12
6.02731e-12
6.22642e-12
5.25384e-12
3.7385e-12
2.13614e-12
9.58486e-13
1.14203e-15
2.10077e-14
4.71488e-14
6.92269e-14
8.86504e-14
1.0241e-13
1.09353e-13
1.26344e-13
1.49792e-13
1.71352e-13
1.89423e-13
2.02274e-13
2.08204e-13
2.06025e-13
1.95117e-13
1.71737e-13
1.32174e-13
7.4055e-14
7.65863e-15
7.59875e-15
7.42007e-15
7.11909e-15
6.70737e-15
6.22502e-15
5.73324e-15
5.31399e-15
5.08205e-15
5.14061e-15
5.54198e-15
6.33953e-15
7.58033e-15
9.23212e-15
1.1224e-14
1.3483e-14
1.59048e-14
1.83453e-14
2.06335e-14
2.25831e-14
2.39772e-14
2.462e-14
2.43739e-14
2.32868e-13
4.15291e-13
4.99312e-13
4.95831e-13
4.25614e-13
3.10941e-13
2.00199e-13
1.0512e-13
6.04196e-14
)
;

boundaryField
{
    AXIS
    {
        type            empty;
    }
    OUTLET
    {
        type            calculated;
        value           nonuniform List<scalar> 
25
(
4.99419e-09
4.96628e-09
4.90512e-09
4.80767e-09
4.67528e-09
4.50873e-09
4.31685e-09
4.10824e-09
3.88944e-09
3.64099e-09
3.36461e-09
3.0502e-09
2.6942e-09
2.28203e-09
1.86181e-09
1.4365e-09
1.03424e-09
6.77792e-10
3.9174e-10
1.91114e-10
7.27705e-11
2.24816e-11
5.65641e-12
9.58486e-13
6.04196e-14
)
;
    }
    COFLOW
    {
        type            calculated;
        value           uniform 0;
    }
    PILOT
    {
        type            calculated;
        value           uniform 1.09926e-14;
    }
    FUEL
    {
        type            calculated;
        value           uniform 0;
    }
    WALL
    {
        type            calculated;
        value           nonuniform List<scalar> 
50
(
1.14203e-15
2.10077e-14
4.71488e-14
6.92269e-14
8.86504e-14
1.0241e-13
1.09353e-13
1.26344e-13
1.49792e-13
1.71352e-13
1.89423e-13
2.02274e-13
2.08204e-13
2.06025e-13
1.95117e-13
1.71737e-13
1.32174e-13
7.4055e-14
7.65863e-15
7.59875e-15
7.42007e-15
7.11909e-15
6.70737e-15
6.22502e-15
5.73324e-15
5.31399e-15
5.08205e-15
5.14061e-15
5.54198e-15
6.33953e-15
7.58033e-15
9.23212e-15
1.1224e-14
1.3483e-14
1.59048e-14
1.83453e-14
2.06335e-14
2.25831e-14
2.39772e-14
2.462e-14
2.43739e-14
2.32868e-13
4.15291e-13
4.99312e-13
4.95831e-13
4.25614e-13
3.10941e-13
2.00199e-13
1.0512e-13
6.04196e-14
)
;
    }
    front
    {
        type            wedge;
    }
    back
    {
        type            wedge;
    }
}


// ************************************************************************* //
