/*--------------------------------*- C++ -*----------------------------------*\
| =========                 |                                                 |
| \\      /  F ield         | OpenFOAM: The Open Source CFD Toolbox           |
|  \\    /   O peration     | Version:  2.4.x                                 |
|   \\  /    A nd           | Web:      www.OpenFOAM.org                      |
|    \\/     M anipulation  |                                                 |
\*---------------------------------------------------------------------------*/
FoamFile
{
    version     2.0;
    format      ascii;
    class       volScalarField;
    location    "0.1";
    object      CO;
}
// * * * * * * * * * * * * * * * * * * * * * * * * * * * * * * * * * * * * * //

dimensions      [0 0 0 0 0 0 0];

internalField   nonuniform List<scalar> 
1250
(
0.000596954
0.00215338
0.0036889
0.00505935
0.00630258
0.00740227
0.00836745
0.00921248
0.0100829
0.0114859
0.0129638
0.014539
0.0162104
0.0179659
0.0197447
0.0216221
0.0235301
0.0254604
0.0274211
0.0294302
0.0314598
0.0335117
0.0355537
0.03746
0.0397833
0.0423489
0.0448571
0.0472474
0.0495427
0.051675
0.053665
0.0554762
0.0570799
0.0584322
0.0596107
0.0605785
0.0613403
0.0619129
0.0622524
0.0624036
0.0622886
0.0620117
0.0614815
0.0606365
0.059745
0.0584301
0.0567253
0.0548817
0.0506483
0.0385235
0.000700992
0.00243458
0.00400229
0.00536351
0.00655261
0.00756604
0.00842115
0.00915924
0.0103943
0.0118021
0.0132797
0.0148503
0.0165305
0.0182625
0.020044
0.0219221
0.0238219
0.0257357
0.0276976
0.0296922
0.031716
0.0337524
0.0357778
0.0376672
0.0397521
0.042316
0.0448
0.0471838
0.0494528
0.0515682
0.0535349
0.0553223
0.0569105
0.0582457
0.0594023
0.0603499
0.0610965
0.0616484
0.0619714
0.062102
0.0619745
0.0616779
0.0611381
0.0602818
0.0593858
0.0580606
0.056361
0.0545085
0.0502663
0.0381892
0.0010325
0.00322292
0.00482179
0.00608198
0.00704419
0.00774581
0.00852836
0.00977009
0.011097
0.0124842
0.0139679
0.0155388
0.0171949
0.0189048
0.0207097
0.0225711
0.0244458
0.0263432
0.0282867
0.0302626
0.0322636
0.0342647
0.0362521
0.0380946
0.0398825
0.0422353
0.0446829
0.047048
0.0492665
0.0513495
0.0532684
0.0550062
0.0565488
0.057856
0.0589573
0.0598573
0.0605716
0.0610714
0.0613635
0.0614455
0.0613013
0.0609623
0.0604001
0.0595194
0.0586126
0.0572604
0.0555485
0.0536772
0.0494057
0.0374559
0.00206131
0.00495988
0.00629699
0.00689472
0.00743877
0.00848849
0.00960388
0.0107886
0.0120854
0.0134592
0.0149435
0.0164895
0.0181368
0.0198643
0.0216562
0.0234882
0.0253394
0.0272131
0.0291359
0.0310826
0.0330352
0.0349842
0.0368889
0.0386727
0.0403922
0.0420661
0.044488
0.0467898
0.0489599
0.050981
0.0528257
0.0544831
0.0559689
0.0572255
0.0582581
0.0591071
0.0597555
0.0601984
0.0604306
0.0604659
0.0602726
0.0598885
0.0592761
0.0583687
0.0574331
0.056035
0.0543345
0.0524455
0.0481368
0.0363653
0.00620464
0.00864989
0.00779074
0.00826596
0.00891173
0.00970338
0.0107054
0.0118504
0.0131459
0.0145326
0.0160319
0.0176068
0.0192562
0.0209639
0.0227431
0.0245797
0.0264049
0.0282695
0.0301524
0.0320501
0.0339289
0.0357876
0.0376072
0.0393006
0.0409425
0.0425311
0.0441678
0.0464146
0.0485049
0.0504297
0.052187
0.0537744
0.0551627
0.0563492
0.0573173
0.0580813
0.0586514
0.0590171
0.0591837
0.0591598
0.0588977
0.0584638
0.0577896
0.0568576
0.0558827
0.0544323
0.0527262
0.0508435
0.046485
0.0349685
0.0235678
0.0123627
0.0106919
0.0106843
0.0112187
0.0120009
0.012982
0.0141119
0.0152769
0.016464
0.0177108
0.0190218
0.0203736
0.0221017
0.0239085
0.0257311
0.0275472
0.0293732
0.0312074
0.0330367
0.0348219
0.0365719
0.0382741
0.0398837
0.0414202
0.0429143
0.0443339
0.045874
0.0478743
0.0497178
0.0513567
0.0528149
0.0540975
0.0551945
0.0560867
0.0567705
0.0572436
0.0575365
0.0576209
0.0575142
0.0571845
0.0566864
0.0559605
0.0549902
0.0539737
0.0524658
0.0507776
0.0488746
0.0445033
0.0333252
0.0310068
0.0176178
0.0141282
0.0134152
0.0135843
0.0142963
0.015236
0.0163003
0.0174432
0.018617
0.0198443
0.0211065
0.0223792
0.0236609
0.0250019
0.0268102
0.0286067
0.030393
0.0321606
0.0338999
0.0355705
0.037207
0.0388035
0.0403008
0.0417242
0.0430977
0.0444026
0.0456298
0.0470485
0.048754
0.0502794
0.0516268
0.0527904
0.0537709
0.054545
0.0551348
0.055529
0.0557275
0.0557366
0.055546
0.0551509
0.0545916
0.0537978
0.0527941
0.051729
0.0501772
0.0485074
0.0466012
0.0422584
0.0314916
0.0242973
0.0183978
0.0152838
0.0148607
0.0151305
0.015976
0.01702
0.0181403
0.0193027
0.0204925
0.0216924
0.0228993
0.0241043
0.0252902
0.0264559
0.027626
0.0293808
0.0311127
0.0328073
0.0344518
0.0360436
0.0375734
0.039039
0.0404254
0.0417423
0.0429791
0.0441519
0.0452489
0.0462594
0.0475649
0.0489494
0.0501556
0.0511919
0.0520557
0.0527172
0.0531983
0.0534975
0.0536019
0.0535195
0.0532578
0.0527972
0.0521786
0.0513293
0.0502954
0.0491985
0.0475944
0.0459784
0.044059
0.0398039
0.029519
0.0126392
0.0144892
0.0135403
0.01429
0.0154051
0.01653
0.017849
0.0191416
0.0204194
0.0216781
0.0229027
0.0240987
0.0252679
0.0263976
0.0274949
0.0286073
0.0298641
0.0315296
0.0331391
0.034687
0.0361569
0.037557
0.0388906
0.0401406
0.0413424
0.0424561
0.0435028
0.0444558
0.0453407
0.0461292
0.0473376
0.0484134
0.0493087
0.0500404
0.0505791
0.0509492
0.0511535
0.0511723
0.0510113
0.0506776
0.0501582
0.049475
0.048577
0.0475244
0.0463853
0.0447733
0.0432103
0.0413169
0.0372005
0.0273871
0.00365793
0.00800794
0.0091742
0.0116319
0.0137618
0.0156491
0.0173429
0.0189557
0.0205264
0.0220857
0.0235523
0.0249267
0.0262153
0.0274237
0.0285317
0.0294783
0.0304125
0.0318435
0.0332926
0.0346699
0.0359726
0.0371915
0.0383296
0.0393858
0.040442
0.0414413
0.0423695
0.0431994
0.0439561
0.0446277
0.0454097
0.0463397
0.0471091
0.0477126
0.0481551
0.0484178
0.0485224
0.048455
0.0482185
0.0478202
0.0472498
0.0465192
0.0455883
0.0445385
0.0433733
0.0417735
0.0402983
0.0384363
0.0345245
0.0252423
0.000460272
0.00310795
0.00513149
0.00765821
0.0104568
0.0130134
0.0152795
0.0173249
0.0190547
0.0207292
0.0224246
0.024034
0.0255045
0.026879
0.0281267
0.02913
0.0300678
0.0313641
0.0326552
0.0338746
0.0350235
0.0360931
0.0370933
0.038017
0.0389353
0.039823
0.0406242
0.0413509
0.0420046
0.0425774
0.0430889
0.0438886
0.04452
0.0450126
0.0453368
0.0455115
0.0455224
0.0453894
0.0450854
0.0446346
0.0440276
0.0432682
0.0423234
0.0412833
0.0401168
0.0385628
0.0371835
0.0353882
0.0316721
0.0230664
0.00026814
0.00127965
0.00260375
0.00425123
0.00648781
0.00899389
0.0116006
0.0138738
0.0159842
0.0179205
0.0196382
0.0212706
0.022769
0.0241527
0.0254097
0.0266935
0.0280783
0.029479
0.0307315
0.0319042
0.0329919
0.0339985
0.0349305
0.0357849
0.0365918
0.0373745
0.0380779
0.0387078
0.0392651
0.0397596
0.0401857
0.0407987
0.041309
0.0416899
0.041921
0.0420084
0.0419581
0.041752
0.041413
0.0409298
0.0403082
0.0395457
0.0386117
0.0375983
0.0364482
0.0349938
0.0337458
0.0320446
0.0285534
0.0207587
0.000149947
0.000631283
0.00127891
0.00216956
0.0034356
0.00503997
0.00706249
0.00926927
0.0114044
0.013398
0.0152934
0.0171554
0.0188573
0.020426
0.0218961
0.0233211
0.0246894
0.0259915
0.0272234
0.0283937
0.0294881
0.0305052
0.0314478
0.0323223
0.0331052
0.0337985
0.0344276
0.0349945
0.0354932
0.0359417
0.0363342
0.0368656
0.0372745
0.0375643
0.0377153
0.0377446
0.0376423
0.0374061
0.0370464
0.0365562
0.0359479
0.0352215
0.0343508
0.0333965
0.0323068
0.0310105
0.0299245
0.028287
0.0251249
0.0182718
9.09587e-05
0.000352974
0.000702401
0.00113929
0.00174307
0.00252275
0.00351962
0.0047902
0.00631668
0.00820682
0.0101455
0.0120528
0.0138702
0.0154509
0.0169725
0.018426
0.0198056
0.0211287
0.0223729
0.0235471
0.0246484
0.025678
0.0266381
0.0275293
0.0283003
0.0289508
0.0295448
0.0300858
0.0305725
0.0310079
0.031514
0.0319557
0.0322932
0.0325366
0.0326438
0.0326483
0.0325352
0.0323066
0.031963
0.0315088
0.0309501
0.0302874
0.0295126
0.0286741
0.027719
0.0266191
0.0256805
0.024145
0.0214695
0.0156364
5.89568e-05
0.000216585
0.000417404
0.000664184
0.000952433
0.00130007
0.00172827
0.00227632
0.00298615
0.00391667
0.00508416
0.00637568
0.00769482
0.00914336
0.0105871
0.0119923
0.0133541
0.0146736
0.0159479
0.0171778
0.0183393
0.0194273
0.0204443
0.0213923
0.0221472
0.0228156
0.0234396
0.0240146
0.0246099
0.0251691
0.0256614
0.0260729
0.0263926
0.0266252
0.0267348
0.0267721
0.0266971
0.0265154
0.0262427
0.025872
0.0254141
0.0248647
0.0242309
0.0235322
0.0227632
0.0219091
0.0211446
0.0198204
0.0177015
0.0129442
3.96435e-05
0.00013972
0.000260918
0.000402571
0.000565601
0.000751814
0.0009528
0.00119209
0.00147616
0.00182535
0.00225326
0.00275703
0.00339703
0.00417412
0.00507479
0.00606985
0.00712559
0.00821303
0.0093174
0.0103991
0.011465
0.0125012
0.0134986
0.0143524
0.0151504
0.0159136
0.0166304
0.0173084
0.0179323
0.0184961
0.0190031
0.0194375
0.0197909
0.0200674
0.0202461
0.0203478
0.0203475
0.0202779
0.020127
0.0198824
0.0195723
0.0191851
0.0187441
0.0182456
0.0177127
0.0171241
0.016553
0.0155438
0.0139544
0.0102881
2.70004e-05
9.25514e-05
0.00016956
0.000257075
0.000354343
0.00046125
0.000578636
0.000704948
0.000837898
0.000989028
0.00114384
0.00131275
0.00151396
0.00175793
0.0020644
0.00244709
0.00292179
0.00349228
0.0041456
0.00486628
0.00561225
0.00637127
0.00711828
0.00785295
0.00856522
0.00925794
0.00991828
0.0105486
0.0111404
0.0117015
0.0122169
0.0126669
0.0130675
0.0133957
0.0136579
0.0138545
0.0139734
0.0140303
0.0140183
0.0139442
0.0138254
0.0136373
0.0134131
0.0131483
0.0128672
0.0125348
0.0122051
0.0116029
0.0104731
0.00772515
1.83772e-05
6.19117e-05
0.000112176
0.0001685
0.00023013
0.000296419
0.00036696
0.000441694
0.00052095
0.000600161
0.000667283
0.000736638
0.000809309
0.000887416
0.000977477
0.00107851
0.00120767
0.00136141
0.00156128
0.0018042
0.00209245
0.00242766
0.00280011
0.00320834
0.00364986
0.00410694
0.00457331
0.00505733
0.00552401
0.00598369
0.00642964
0.00683998
0.0072147
0.00755381
0.00785435
0.00810632
0.00831993
0.00848763
0.00860852
0.00868521
0.00873054
0.0087335
0.00872023
0.00868502
0.0086317
0.00854017
0.00845082
0.00815293
0.00735363
0.00536998
1.23698e-05
4.12708e-05
7.4376e-05
0.0001113
0.000151542
0.000194562
0.000239846
0.000286951
0.000334048
0.000376259
0.00041672
0.000454983
0.000488904
0.000519596
0.000549187
0.000577622
0.000605073
0.000646392
0.000696849
0.000751186
0.000821501
0.000898702
0.000995903
0.00110471
0.00124277
0.00140438
0.00158899
0.00179827
0.00202524
0.00227091
0.00253005
0.00280021
0.00306312
0.00331562
0.00358057
0.00382967
0.00406416
0.00427645
0.00446465
0.00464026
0.0047962
0.00493073
0.00505705
0.00516796
0.00527117
0.00535443
0.00541748
0.0052814
0.00472616
0.00334018
8.13928e-06
2.7057e-05
4.87229e-05
7.2952e-05
9.94618e-05
0.000127891
0.000157839
0.000186862
0.000214669
0.000241127
0.000265674
0.000287796
0.000307092
0.000323207
0.000335843
0.000344349
0.000352452
0.000363848
0.0003736
0.000381736
0.000387968
0.000397543
0.000407696
0.000417264
0.000431027
0.0004524
0.000475224
0.000514949
0.00056709
0.000655682
0.000750557
0.00087109
0.000996446
0.00114021
0.00128539
0.00144214
0.00159493
0.00176858
0.00193502
0.00209859
0.00226301
0.00243272
0.00260216
0.00276598
0.00292305
0.00306427
0.00316092
0.00306158
0.00271114
0.00177344
5.14456e-06
1.71483e-05
3.10099e-05
4.66704e-05
6.36633e-05
8.15374e-05
9.99481e-05
0.000118402
0.000136373
0.000153346
0.000168833
0.000182359
0.000193505
0.000201893
0.000207171
0.000210436
0.000214824
0.000216564
0.000215452
0.000211897
0.000205454
0.000195885
0.000183043
0.000166845
0.000147789
0.000155873
0.000167206
0.000179826
0.000194469
0.000218533
0.000248478
0.000283643
0.00033238
0.000386361
0.000450413
0.000524657
0.000602721
0.000695613
0.00079267
0.000890127
0.000996169
0.00110258
0.00120557
0.00133935
0.00147262
0.00157981
0.00161317
0.00154627
0.00130477
0.000731404
2.95653e-06
9.97508e-06
1.81928e-05
2.75445e-05
3.78662e-05
4.8913e-05
6.03789e-05
7.19143e-05
8.3147e-05
9.36893e-05
0.000103164
0.000111205
0.000117446
0.000121549
0.000124865
0.000127561
0.000128112
0.000126283
0.000121821
0.000114458
0.000103858
8.96777e-05
7.15655e-05
7.09564e-05
7.05861e-05
6.98212e-05
6.90753e-05
6.88187e-05
6.96577e-05
7.4214e-05
8.33482e-05
9.61832e-05
0.000112846
0.000135717
0.000164516
0.000197338
0.000233908
0.000277453
0.000325193
0.000374807
0.000425727
0.000475835
0.000522407
0.000569015
0.000645808
0.000693781
0.000708275
0.000645112
0.000470658
0.000235895
1.41278e-06
5.00816e-06
9.42883e-06
1.46121e-05
2.04314e-05
2.67119e-05
3.32505e-05
3.98181e-05
4.61659e-05
5.20337e-05
5.71526e-05
6.12621e-05
6.49146e-05
6.80327e-05
6.98623e-05
7.02036e-05
6.88483e-05
6.55629e-05
6.00907e-05
5.21496e-05
4.14559e-05
3.78406e-05
3.58468e-05
3.323e-05
3.00647e-05
2.65067e-05
2.3034e-05
2.05786e-05
1.88377e-05
1.85057e-05
2.03898e-05
2.48075e-05
3.17539e-05
4.20682e-05
5.57883e-05
7.21739e-05
9.09286e-05
0.000111535
0.000133362
0.000155584
0.000177285
0.000196374
0.00021085
0.000217678
0.000243615
0.000262308
0.000248335
0.000200119
0.000127394
6.01659e-05
3.97203e-07
1.73995e-06
3.67748e-06
6.00158e-06
8.60565e-06
1.13837e-05
1.42404e-05
1.70531e-05
1.99208e-05
2.27126e-05
2.52068e-05
2.7266e-05
2.87477e-05
2.95104e-05
2.94023e-05
2.82465e-05
2.5843e-05
2.19904e-05
1.87785e-05
1.80234e-05
1.68027e-05
1.51514e-05
1.29294e-05
1.0227e-05
7.13664e-06
3.6167e-06
1.87782e-06
2.01298e-06
2.1995e-06
2.44649e-06
2.79147e-06
3.39703e-06
4.06669e-06
4.78682e-06
1.13729e-05
1.96867e-05
2.91699e-05
3.94039e-05
4.95363e-05
5.84496e-05
6.60558e-05
7.12114e-05
7.37212e-05
7.09592e-05
6.51166e-05
6.68158e-05
5.62354e-05
3.99827e-05
2.28513e-05
1.02568e-05
1.26319e-08
2.23186e-07
5.01897e-07
7.39393e-07
9.50622e-07
1.10396e-06
1.18739e-06
1.37887e-06
1.64067e-06
1.88489e-06
2.09472e-06
2.25199e-06
2.33871e-06
2.34218e-06
2.25523e-06
2.03879e-06
1.65382e-06
1.0753e-06
4.07638e-07
4.13995e-07
4.16175e-07
4.1427e-07
4.09113e-07
4.02794e-07
3.98275e-07
3.99291e-07
4.10753e-07
4.36737e-07
4.78897e-07
5.38695e-07
6.17186e-07
7.1151e-07
8.16982e-07
9.29011e-07
1.04183e-06
1.14819e-06
1.24012e-06
1.30953e-06
1.34712e-06
1.34586e-06
1.30059e-06
3.34878e-06
5.0982e-06
5.82026e-06
5.63667e-06
4.77128e-06
3.46055e-06
2.21941e-06
1.16857e-06
6.60295e-07
)
;

boundaryField
{
    AXIS
    {
        type            empty;
    }
    OUTLET
    {
        type            calculated;
        value           nonuniform List<scalar> 
25
(
0.0385235
0.0381892
0.0374559
0.0363653
0.0349685
0.0333252
0.0314916
0.029519
0.0273871
0.0252423
0.0230664
0.0207587
0.0182718
0.0156364
0.0129442
0.0102881
0.00772515
0.00536998
0.00334018
0.00177344
0.000731404
0.000235895
6.01659e-05
1.02568e-05
6.60295e-07
)
;
    }
    COFLOW
    {
        type            calculated;
        value           uniform 0;
    }
    PILOT
    {
        type            calculated;
        value           uniform 0.00431273;
    }
    FUEL
    {
        type            calculated;
        value           uniform 0;
    }
    WALL
    {
        type            calculated;
        value           nonuniform List<scalar> 
50
(
1.26319e-08
2.23186e-07
5.01897e-07
7.39393e-07
9.50622e-07
1.10396e-06
1.18739e-06
1.37887e-06
1.64067e-06
1.88489e-06
2.09472e-06
2.25199e-06
2.33871e-06
2.34218e-06
2.25523e-06
2.03879e-06
1.65382e-06
1.0753e-06
4.07638e-07
4.13995e-07
4.16175e-07
4.1427e-07
4.09113e-07
4.02794e-07
3.98275e-07
3.99291e-07
4.10753e-07
4.36737e-07
4.78897e-07
5.38695e-07
6.17186e-07
7.1151e-07
8.16982e-07
9.29011e-07
1.04183e-06
1.14819e-06
1.24012e-06
1.30953e-06
1.34712e-06
1.34586e-06
1.30059e-06
3.34878e-06
5.0982e-06
5.82026e-06
5.63667e-06
4.77128e-06
3.46055e-06
2.21941e-06
1.16857e-06
6.60295e-07
)
;
    }
    front
    {
        type            wedge;
    }
    back
    {
        type            wedge;
    }
}


// ************************************************************************* //
