/*--------------------------------*- C++ -*----------------------------------*\
| =========                 |                                                 |
| \\      /  F ield         | OpenFOAM: The Open Source CFD Toolbox           |
|  \\    /   O peration     | Version:  2.4.x                                 |
|   \\  /    A nd           | Web:      www.OpenFOAM.org                      |
|    \\/     M anipulation  |                                                 |
\*---------------------------------------------------------------------------*/
FoamFile
{
    version     2.0;
    format      ascii;
    class       volScalarField;
    location    "0.1";
    object      CO2;
}
// * * * * * * * * * * * * * * * * * * * * * * * * * * * * * * * * * * * * * //

dimensions      [0 0 0 0 0 0 0];

internalField   nonuniform List<scalar> 
1250
(
0.000615833
0.00229145
0.00414722
0.00599553
0.00786658
0.00974089
0.0116258
0.0135192
0.0154815
0.017722
0.0199903
0.0221775
0.024446
0.0267848
0.0291594
0.0316154
0.0339856
0.0361848
0.038421
0.0407057
0.0430435
0.0454367
0.0478769
0.050046
0.0523726
0.0548236
0.057284
0.0597348
0.0621813
0.0645968
0.0669985
0.0693685
0.0716572
0.0737819
0.0758546
0.0778603
0.079795
0.0816756
0.0834906
0.0852376
0.0869439
0.0885725
0.0901538
0.0917221
0.0931387
0.0946734
0.0960451
0.0969581
0.0981647
0.0994248
0.000712113
0.00258761
0.0045379
0.00645828
0.00837687
0.010274
0.012162
0.0140438
0.016174
0.018442
0.0207139
0.0229049
0.0251794
0.0275053
0.0298814
0.0323356
0.0346805
0.0368657
0.039095
0.0413709
0.0437031
0.046089
0.0485158
0.050672
0.0528837
0.0553238
0.0577666
0.0602051
0.0626309
0.0650324
0.0674164
0.0697681
0.0720572
0.0741631
0.0762139
0.0781979
0.0801141
0.0819744
0.0837703
0.0854977
0.0871864
0.0887944
0.0903614
0.0919094
0.0933117
0.09483
0.0961801
0.0970737
0.0982316
0.0993456
0.00101307
0.00342444
0.00560923
0.00768612
0.00967767
0.0115597
0.0134951
0.0156232
0.0178409
0.0201379
0.0224004
0.0245896
0.0268449
0.0291487
0.0315262
0.0339567
0.0362364
0.0383931
0.0405983
0.0428562
0.0451705
0.0475293
0.0499242
0.0520415
0.054099
0.0564269
0.0588342
0.0612418
0.0636249
0.0659957
0.0683404
0.0706522
0.0729245
0.0750063
0.0770053
0.0789396
0.0808151
0.0826274
0.0843832
0.0860655
0.0877196
0.0892825
0.0908172
0.0923201
0.0936907
0.0951703
0.0964582
0.0973053
0.0983354
0.0991647
0.00192015
0.00538009
0.00792876
0.0100588
0.0120747
0.0141688
0.0162802
0.0184213
0.0206465
0.0229489
0.0251443
0.0272801
0.029489
0.0317635
0.0340916
0.0364632
0.038641
0.0407477
0.0429159
0.0451377
0.0474021
0.049707
0.0520299
0.0540929
0.0560832
0.0580856
0.0604422
0.062787
0.0651221
0.0674354
0.0697168
0.0719619
0.0741767
0.0762559
0.0781792
0.0800478
0.0818535
0.0836004
0.0852891
0.0869127
0.0885026
0.0900045
0.0914813
0.0929186
0.0942343
0.0956481
0.0968599
0.0976412
0.0984793
0.0988331
0.00560808
0.0106072
0.0126722
0.0147625
0.0167046
0.0185845
0.02054
0.0225989
0.0247527
0.026994
0.0290158
0.0310592
0.0331561
0.035302
0.0375349
0.039859
0.0418918
0.0439353
0.0460277
0.0481699
0.0503437
0.0525497
0.0547835
0.0567778
0.0586768
0.0605823
0.0625577
0.0648352
0.0670871
0.0693113
0.0715092
0.0736764
0.0757974
0.0778681
0.0797133
0.0814855
0.0831996
0.0848558
0.0864591
0.0880019
0.0895027
0.0909271
0.0923253
0.0936783
0.094919
0.0962453
0.0973343
0.098049
0.0986026
0.0983128
0.0339861
0.0236683
0.022027
0.022481
0.0235941
0.0249781
0.0266103
0.0284633
0.0303774
0.0322857
0.0339607
0.035769
0.0376746
0.039742
0.0418842
0.044075
0.0459426
0.0478651
0.0498421
0.0518654
0.0539163
0.0559941
0.0580955
0.0600072
0.06179
0.0635974
0.0654117
0.0673241
0.0694725
0.0715991
0.0736786
0.075719
0.0777236
0.079688
0.0815476
0.0832072
0.084803
0.0863532
0.0878435
0.0892789
0.0906755
0.0919994
0.0933055
0.0945465
0.0956955
0.0969059
0.0978564
0.0984402
0.0986502
0.0975287
0.0711912
0.0406048
0.0331903
0.0313791
0.031296
0.0322185
0.0335204
0.0350746
0.03681
0.0384393
0.0399596
0.0415956
0.0433069
0.0450903
0.0469516
0.0489147
0.0506343
0.0524081
0.0542328
0.0560978
0.0579691
0.0598885
0.0618585
0.0636859
0.0653282
0.0670009
0.0686917
0.0703922
0.0722158
0.0741919
0.0761346
0.0780424
0.07991
0.081737
0.0835098
0.0851302
0.0865958
0.0880099
0.0893783
0.0906908
0.0919656
0.0931722
0.0943568
0.0954694
0.0965028
0.097577
0.0983378
0.0987798
0.0985697
0.0964531
0.0879998
0.0496436
0.040377
0.0383655
0.0380446
0.0390173
0.0403556
0.0418755
0.043523
0.0449293
0.0463082
0.0477708
0.049308
0.0508816
0.0525007
0.0540521
0.0556008
0.0572082
0.0588723
0.060576
0.062317
0.0640955
0.0659118
0.0676591
0.0691567
0.0706655
0.0721981
0.0737457
0.0753073
0.0770237
0.0787992
0.0805378
0.0822442
0.0839162
0.0855324
0.0871052
0.0884877
0.0897537
0.0909726
0.092148
0.0932826
0.0943589
0.0954109
0.0963704
0.0972853
0.0981555
0.0987369
0.0989708
0.0982713
0.0949721
0.0818447
0.0469869
0.0399624
0.0404653
0.0421023
0.0437237
0.0457122
0.0475921
0.0493994
0.0508552
0.0522696
0.0536921
0.0551355
0.0565842
0.0580623
0.0594137
0.0607189
0.0621802
0.063696
0.06524
0.0668043
0.0684064
0.070042
0.0716853
0.0730345
0.0743884
0.0757657
0.0771414
0.0785426
0.0799499
0.0815356
0.0830984
0.0846197
0.0861124
0.0875541
0.0889583
0.0903248
0.0914753
0.0925377
0.0935642
0.094552
0.0954704
0.0963632
0.0971485
0.0978956
0.0985715
0.0989219
0.0989395
0.097666
0.0930972
0.0487907
0.0307334
0.0306476
0.0363419
0.0411203
0.0450224
0.0482031
0.0510283
0.0535777
0.0558971
0.0579358
0.059781
0.061493
0.0630793
0.0645585
0.0654851
0.0664212
0.0676018
0.0688837
0.0701761
0.0714878
0.0728245
0.0741615
0.0755094
0.0767312
0.0779405
0.0791699
0.0803893
0.0816272
0.08287
0.084182
0.0855509
0.0868921
0.0881955
0.0894711
0.0906931
0.091883
0.0930179
0.0939548
0.0948203
0.0956444
0.0963909
0.0971027
0.0977236
0.0982998
0.0987374
0.0988803
0.0986053
0.0967062
0.0908601
0.00631574
0.0124072
0.0180216
0.0264757
0.034784
0.0413898
0.0466857
0.0510778
0.0544607
0.0574704
0.0604211
0.0630669
0.065347
0.067417
0.0692419
0.0702875
0.0712583
0.0723236
0.0734052
0.0744897
0.0755841
0.0767046
0.077823
0.0789619
0.0800723
0.0811558
0.0822361
0.083325
0.0844249
0.0855193
0.0866266
0.0878164
0.0889603
0.0900891
0.0911696
0.0922201
0.0932178
0.0941843
0.0950601
0.0958005
0.0964534
0.0970294
0.0975509
0.0979848
0.0983804
0.0985374
0.0984255
0.0978492
0.0952045
0.0882198
0.00180244
0.00524442
0.00883241
0.0148798
0.0231854
0.0320471
0.03994
0.0461733
0.0514412
0.0558268
0.0593192
0.0624211
0.0650723
0.0673964
0.069396
0.0714081
0.0733254
0.0748924
0.0761863
0.0773982
0.0785372
0.0796487
0.0807306
0.0817954
0.0828344
0.0838292
0.0848171
0.0857991
0.0867764
0.0877503
0.0887262
0.0897195
0.0906829
0.0916236
0.0925254
0.0933838
0.0942114
0.0949588
0.0956664
0.0962942
0.0968293
0.0972394
0.0975419
0.097758
0.0979293
0.0977992
0.0974197
0.0964668
0.0930433
0.0849624
0.000721009
0.0025148
0.00448688
0.00747321
0.0121992
0.018984
0.0270409
0.0351537
0.0424137
0.0485644
0.0537314
0.0582329
0.0620103
0.065178
0.0679474
0.0704056
0.0725475
0.0744473
0.0761751
0.0777751
0.0792427
0.080622
0.0819188
0.0831708
0.0843219
0.0853303
0.0863093
0.0872628
0.0881944
0.0891039
0.0899946
0.0908566
0.0916843
0.0924614
0.0931915
0.093885
0.0945227
0.0950832
0.0955965
0.0960169
0.0963777
0.0966262
0.096756
0.096741
0.096639
0.096202
0.0955821
0.0941208
0.0899894
0.0808083
0.000375042
0.00135828
0.0025533
0.00408172
0.0063273
0.00956653
0.014164
0.0202889
0.0274452
0.0347553
0.0415464
0.0476244
0.05291
0.0574774
0.0614996
0.0650515
0.0680943
0.0708156
0.0732164
0.0753739
0.077302
0.0790488
0.0806597
0.0821701
0.0835084
0.0846987
0.0858041
0.0868496
0.0878509
0.088805
0.0896835
0.0904948
0.0912454
0.0919385
0.0925526
0.0931099
0.0935973
0.0940187
0.0943404
0.0945875
0.0947429
0.0947811
0.0946928
0.094475
0.094124
0.0934068
0.0924794
0.0904839
0.0857378
0.0755219
0.000231329
0.000829548
0.00156179
0.00249621
0.00366912
0.00523025
0.00732539
0.0101881
0.014033
0.0189502
0.0247899
0.0310416
0.0371937
0.0429426
0.0481929
0.0529295
0.0571603
0.0609585
0.0643869
0.0675708
0.0703679
0.0728737
0.0751383
0.0771865
0.0789589
0.0805474
0.0820194
0.0833989
0.0846281
0.085747
0.0867732
0.0876843
0.0884889
0.0892017
0.0897985
0.0903244
0.0907422
0.0910659
0.0912739
0.0913627
0.0913578
0.0912318
0.0909458
0.0905451
0.0899454
0.0889829
0.0878129
0.0852417
0.0800027
0.0690629
0.000156729
0.000550139
0.00102689
0.00160677
0.00232798
0.00323611
0.00429683
0.00569038
0.00744606
0.0097048
0.0125424
0.0160214
0.0202283
0.0250151
0.0301154
0.0352549
0.0402434
0.0449975
0.0493872
0.0534457
0.0571264
0.0604895
0.0635535
0.0663226
0.0688156
0.0711408
0.0733146
0.0752695
0.0770343
0.0786259
0.0800114
0.0812504
0.0823188
0.0832135
0.0839546
0.0845673
0.0850186
0.0853636
0.0855776
0.0856408
0.0855995
0.0853931
0.0850074
0.0844698
0.0837308
0.0826051
0.0811805
0.0780536
0.0726129
0.0613034
0.000111479
0.000383508
0.00070899
0.00109509
0.0015551
0.00210868
0.00278268
0.0035818
0.00449089
0.00562065
0.00694973
0.00849812
0.010421
0.0127593
0.0155579
0.0188369
0.0225457
0.0265817
0.0307928
0.035024
0.0391525
0.0430738
0.0468181
0.0503409
0.053624
0.0566733
0.0594963
0.0621138
0.0645303
0.0666889
0.0686164
0.070346
0.0718143
0.0730907
0.0741491
0.0750221
0.0757112
0.0762438
0.0765989
0.0767941
0.0768667
0.0767242
0.0764181
0.0759204
0.0751714
0.0740202
0.0723981
0.0690017
0.0636775
0.0521325
8.09559e-05
0.000274364
0.000503115
0.000770683
0.00108251
0.00144626
0.00187202
0.00237262
0.00296418
0.00364004
0.00432216
0.00512654
0.00607924
0.00719306
0.00847331
0.00999363
0.0117773
0.0138661
0.0162288
0.018885
0.0218301
0.0250196
0.028369
0.0317981
0.0352111
0.0385801
0.0418576
0.0450121
0.0479936
0.050724
0.0531843
0.0553951
0.0573589
0.0590737
0.0605528
0.0618281
0.0628842
0.0637551
0.0644489
0.0649573
0.0653026
0.0654087
0.0653438
0.0650585
0.0644514
0.0633931
0.0617006
0.0584483
0.053157
0.0416346
5.8905e-05
0.000197762
0.00036076
0.00055007
0.000768456
0.00101944
0.00130739
0.00163751
0.0020108
0.0024182
0.00287974
0.00340354
0.00395802
0.00455454
0.00523684
0.00601617
0.00690736
0.00785947
0.00893022
0.0101705
0.011607
0.0132566
0.0151456
0.0172669
0.0196067
0.0221425
0.0248218
0.0275792
0.0303493
0.0330495
0.0356179
0.0380141
0.040245
0.0423025
0.0441965
0.0459168
0.0474471
0.0487851
0.0499504
0.0508864
0.0516364
0.052156
0.052459
0.0524101
0.0520477
0.0512276
0.0496007
0.0465144
0.0411973
0.0303785
4.22626e-05
0.000141316
0.00025739
0.000392095
0.000547196
0.000724624
0.000926577
0.00114833
0.00139295
0.00166438
0.00196517
0.00229831
0.00266762
0.00307735
0.00353255
0.00400607
0.00448048
0.00497283
0.00552595
0.00614909
0.00685033
0.00764624
0.00856033
0.0096082
0.0108108
0.0121898
0.0137188
0.015429
0.0172741
0.0192009
0.0211735
0.0231701
0.0251541
0.0271006
0.0289855
0.0307812
0.0324756
0.0340281
0.0354472
0.0366858
0.0377476
0.0385451
0.039087
0.0392513
0.0390161
0.0383548
0.0368165
0.0337748
0.0286548
0.0192817
2.93209e-05
9.82688e-05
0.000179605
0.000274678
0.000383638
0.000506915
0.000645491
0.000799994
0.000971044
0.00115937
0.00136591
0.00159166
0.00183799
0.00210651
0.00239917
0.00270881
0.00301479
0.00334468
0.00370241
0.00405247
0.00443967
0.00487333
0.00536287
0.00591886
0.0065531
0.00724128
0.00803927
0.00894513
0.00996392
0.0111343
0.0124049
0.0137427
0.0151687
0.0166239
0.0181029
0.0195782
0.0210073
0.0223691
0.0236405
0.0247717
0.0257611
0.0265543
0.0271066
0.0272031
0.0269369
0.0261537
0.0243931
0.0212498
0.0166948
0.00985355
1.87927e-05
6.38143e-05
0.000117863
0.00018186
0.000256439
0.000342033
0.000438938
0.000547379
0.000667563
0.000799642
0.000943969
0.00110093
0.00127084
0.00145432
0.0016406
0.00182748
0.00202497
0.00223445
0.00245789
0.00269813
0.0029583
0.00324305
0.00355899
0.00384758
0.00418176
0.00457578
0.00503565
0.00556727
0.00617525
0.00689284
0.00771366
0.00859393
0.00951602
0.0104857
0.0114789
0.0124565
0.013399
0.0143027
0.0151342
0.0158475
0.0164336
0.0168445
0.017009
0.0169388
0.0164233
0.0153057
0.0133844
0.0107586
0.00747102
0.00393189
1.02495e-05
3.66505e-05
7.01579e-05
0.000111352
0.000160576
0.000218005
0.000283784
0.000357992
0.000440634
0.000531746
0.000631386
0.000739735
0.000851152
0.000964375
0.00108296
0.00120696
0.00133676
0.00147295
0.0016166
0.00176911
0.00193234
0.00208691
0.00224954
0.00243199
0.00264187
0.00288818
0.0031781
0.00352642
0.00393236
0.00439726
0.00491593
0.00547185
0.00604783
0.00665126
0.00725942
0.00783543
0.00836161
0.00881968
0.0091935
0.00945348
0.00957841
0.0095899
0.0094153
0.00897372
0.0082182
0.00713093
0.00571657
0.00414473
0.00247461
0.00115384
3.44962e-06
1.53503e-05
3.36344e-05
5.74119e-05
8.67255e-05
0.000121698
0.000162615
0.000209527
0.000260776
0.000316287
0.000376488
0.000441157
0.000510054
0.000582846
0.000658991
0.000738084
0.000820087
0.000905238
0.000988876
0.00106763
0.00114936
0.00123641
0.00133105
0.00143859
0.00156501
0.00171583
0.00189709
0.00211467
0.00236491
0.0026471
0.00296122
0.00331261
0.00366471
0.0040043
0.00431646
0.00458669
0.00480066
0.00494415
0.00501458
0.0050169
0.00488998
0.00463758
0.00427623
0.0038021
0.00319213
0.00246577
0.00171852
0.00107699
0.000579782
0.000252231
1.42307e-07
2.87204e-06
8.01468e-06
1.56424e-05
2.592e-05
3.89427e-05
5.48575e-05
7.33344e-05
9.43908e-05
0.000118125
0.000144405
0.00017303
0.000203711
0.000236032
0.000269084
0.00030284
0.00033691
0.00037096
0.000404999
0.000440195
0.00047776
0.000518639
0.000564313
0.000616713
0.000677843
0.000749476
0.000832781
0.000927427
0.00103157
0.0011424
0.00125651
0.00136765
0.00146853
0.00155268
0.00161394
0.00164676
0.00164686
0.00161196
0.0015397
0.00143315
0.00129342
0.00112827
0.000944544
0.000755511
0.000572558
0.000406649
0.000264266
0.000158528
8.6787e-05
3.57982e-05
)
;

boundaryField
{
    AXIS
    {
        type            empty;
    }
    OUTLET
    {
        type            calculated;
        value           nonuniform List<scalar> 
25
(
0.0994248
0.0993456
0.0991647
0.0988331
0.0983128
0.0975287
0.0964531
0.0949721
0.0930972
0.0908601
0.0882198
0.0849624
0.0808083
0.0755219
0.0690629
0.0613034
0.0521325
0.0416346
0.0303785
0.0192817
0.00985355
0.00393189
0.00115384
0.000252231
3.57982e-05
)
;
    }
    COFLOW
    {
        type            calculated;
        value           uniform 0;
    }
    PILOT
    {
        type            calculated;
        value           uniform 0.114267;
    }
    FUEL
    {
        type            calculated;
        value           uniform 0;
    }
    WALL
    {
        type            calculated;
        value           nonuniform List<scalar> 
50
(
1.42307e-07
2.87204e-06
8.01468e-06
1.56424e-05
2.592e-05
3.89427e-05
5.48575e-05
7.33344e-05
9.43908e-05
0.000118125
0.000144405
0.00017303
0.000203711
0.000236032
0.000269084
0.00030284
0.00033691
0.00037096
0.000404999
0.000440195
0.00047776
0.000518639
0.000564313
0.000616713
0.000677843
0.000749476
0.000832781
0.000927427
0.00103157
0.0011424
0.00125651
0.00136765
0.00146853
0.00155268
0.00161394
0.00164676
0.00164686
0.00161196
0.0015397
0.00143315
0.00129342
0.00112827
0.000944544
0.000755511
0.000572558
0.000406649
0.000264266
0.000158528
8.6787e-05
3.57982e-05
)
;
    }
    front
    {
        type            wedge;
    }
    back
    {
        type            wedge;
    }
}


// ************************************************************************* //
