/*--------------------------------*- C++ -*----------------------------------*\
| =========                 |                                                 |
| \\      /  F ield         | OpenFOAM: The Open Source CFD Toolbox           |
|  \\    /   O peration     | Version:  2.4.x                                 |
|   \\  /    A nd           | Web:      www.OpenFOAM.org                      |
|    \\/     M anipulation  |                                                 |
\*---------------------------------------------------------------------------*/
FoamFile
{
    version     2.0;
    format      ascii;
    class       volScalarField;
    location    "0.1";
    object      epsilon;
}
// * * * * * * * * * * * * * * * * * * * * * * * * * * * * * * * * * * * * * //

dimensions      [0 2 -3 0 0 0 0];

internalField   nonuniform List<scalar> 
1250
(
76.2138
136.057
196.269
280.367
388.73
512.348
636.865
757.33
850.641
926.398
986.704
1022.12
1047.9
1051.33
1047.69
1032.14
1009.31
978.971
945.743
908.841
867.196
825.836
784.79
743.539
704.492
664.59
627.415
590.736
556.743
524.031
493.598
464.592
437.912
412.851
389.609
367.837
347.263
328.22
310.205
293.512
277.618
263.098
249.267
235.701
225.37
212.998
200.582
200.083
212.599
256.335
80.209
146.376
221.098
325.82
455.485
596.266
735.382
854.727
947.245
1015.7
1067.65
1098.55
1113.16
1110.97
1099.79
1075.95
1046.54
1012.62
973.957
932.528
888.681
844.049
800.268
758.169
717.021
676.199
637.284
599.9
564.673
531.389
500.058
470.632
443.257
417.864
394.1
371.923
351.112
331.677
313.45
296.439
280.304
265.615
251.55
237.838
227.295
214.819
202.17
201.679
214.17
258.102
88.0651
177.064
300.87
469.089
657.669
837.993
990.487
1104.61
1182.45
1230.84
1261.66
1270.1
1263.59
1244.06
1211.28
1171.33
1129
1083.6
1034.82
984.669
933.773
883.169
834.393
788.457
743.946
700.223
658.493
618.883
581.673
546.694
513.913
483.223
454.706
428.313
403.653
380.679
359.14
339.05
320.218
302.66
286.039
270.886
256.408
242.32
231.392
218.626
205.562
204.947
217.608
261.97
104.87
271.698
545.528
872.88
1156.45
1368.48
1503.38
1580.06
1605.18
1600.31
1583.61
1548.46
1500.06
1443.84
1380.69
1315.24
1252
1188.62
1124.47
1061.36
999.891
940.514
884.489
832.437
783.031
735.051
689.314
646.45
606.359
568.929
534.026
501.499
471.302
443.411
417.458
393.316
370.716
349.677
329.963
311.628
294.296
278.482
263.411
248.784
237.329
224.121
210.55
209.791
222.724
267.801
200.275
696.708
1385.12
1972.71
2267.78
2391.35
2384.42
2336.49
2235.83
2128.61
2025.97
1919.86
1810.92
1703.09
1597.11
1497.66
1407
1320.09
1236.4
1157.06
1082.3
1011.93
946.827
887.125
831.099
777.987
727.717
680.667
637.064
596.573
559.02
524.189
491.906
462.143
434.554
408.955
385.026
362.807
342.001
322.712
304.501
287.876
272.077
256.791
244.716
230.942
216.82
216.039
229.347
275.303
1116.1
2830.8
3975.09
4108.13
4031.46
3834.72
3540.81
3257.45
2986.96
2749.12
2537.82
2341.56
2157.95
1990.02
1836.54
1699.86
1578.49
1465.37
1360.05
1262.92
1173.59
1091.16
1016.06
947.883
884.633
825.585
770.507
719.108
671.499
627.639
587.148
549.702
515.084
483.189
453.721
426.488
401.062
377.524
355.5
335.148
315.949
298.435
281.828
265.822
253.09
238.659
224.055
223.435
237.262
284.296
1209.43
4163.67
5453.63
5514.41
5305.09
4975.12
4496.72
4050.22
3649.26
3305.55
3000.53
2725.66
2478.4
2259.53
2063.45
1892.94
1743.29
1605.9
1480.44
1366.72
1263.59
1169.7
1085.04
1008.78
938.674
873.778
813.801
758.299
706.914
659.613
616.136
576.014
539.008
504.957
473.54
444.589
417.637
392.751
369.475
348.044
327.832
309.434
291.999
275.284
261.914
246.784
231.888
231.587
246.205
294.433
497.486
2394.04
4473.57
5236.19
5313.26
5157.91
4801.06
4388.45
3989.94
3626.76
3288.97
2979.9
2701.56
2454.44
2234.18
2043.21
1874.37
1720.1
1579.98
1453.92
1340.38
1237.84
1145.76
1063.06
987.455
917.643
853.398
794.311
739.778
689.543
643.375
600.824
561.619
525.601
492.381
461.812
433.432
407.302
382.859
360.429
339.272
320.079
301.869
284.534
270.605
254.795
239.912
240.063
255.904
304.937
249.655
1018.45
2490.83
3702.49
4306.92
4491.63
4418.57
4199.12
3914.23
3615.83
3317.86
3033.31
2769.04
2528.5
2310.77
2120.43
1947.99
1787.78
1642.17
1511.11
1392.99
1286.31
1190.33
1104.03
1024.95
951.827
884.711
823.093
766.45
714.187
666.037
621.651
580.741
543.178
508.545
476.656
447.087
419.944
394.547
371.314
349.38
329.566
310.708
292.919
278.549
262.172
247.676
248.457
266.099
314.587
149.023
364.931
964.197
1897.83
2713.96
3224.48
3473.62
3519.6
3457.76
3305.21
3107.78
2891.73
2677.2
2472.53
2282.53
2111.07
1948.53
1794.93
1655.12
1528.08
1412.44
1307.17
1211.8
1125.18
1045.21
971.21
903.269
840.842
783.375
730.426
681.46
636.052
594.227
555.795
520.337
487.667
457.32
429.501
403.486
379.745
357.296
337.11
317.803
299.793
285.155
268.422
254.715
256.366
276.174
322.704
32.0586
110.274
305.955
712.294
1307.04
1879.2
2301.98
2559.49
2685.14
2688.06
2642.3
2538.69
2412.76
2277.32
2141.1
2007.01
1870.32
1737.29
1613.97
1499.21
1392.75
1294.36
1204.06
1120.89
1043.45
971.612
905.431
844.346
787.871
735.801
687.273
642.045
600.375
561.977
526.47
493.674
463.146
435.124
408.881
385.005
362.388
342.137
322.655
304.714
290.023
273.247
260.731
263.594
285.927
328.801
17.1653
42.8771
101.893
222.326
454.544
811.079
1197.79
1527.17
1767.86
1913.14
1988.63
1998.21
1977.34
1926.37
1854.26
1771.27
1679.71
1586.72
1495.31
1405.48
1318.6
1235.6
1157.34
1083.47
1013.55
948.006
886.734
829.578
776.29
726.813
680.32
636.829
596.645
559.448
524.894
492.837
462.91
435.358
409.471
385.948
363.638
343.742
324.47
307
292.56
276.123
265.355
270.109
294.762
332.612
13.196
23.5325
42.3845
76.6645
140.778
255.227
445.082
678.591
909.158
1104.56
1252.64
1351.82
1412.55
1440.02
1437.16
1419.94
1383.45
1337.48
1286.16
1230.31
1171.83
1112.56
1054
996.518
940.739
887.033
835.495
786.398
739.848
695.879
653.994
614.666
578.106
543.914
511.838
481.836
453.657
427.549
402.894
380.434
359.074
340.066
321.581
305.072
291.29
275.761
267.525
273.944
302.109
333.323
11.6069
16.4092
23.8291
34.9626
52.8484
83.2722
134.991
217.181
335.954
471.945
607.447
729.079
829.454
906.212
958.122
990.989
1006.2
1005.68
998.135
980.221
954.683
924.52
891.428
855.98
819.291
781.823
744.236
707.063
670.737
635.345
601.195
568.963
538.452
509.422
481.767
455.574
430.714
407.451
385.348
365.051
345.712
328.4
311.597
296.799
284.283
270.698
265.686
273.259
305.891
329.289
10.8401
13.2523
16.6362
21.155
27.342
36.2806
49.9782
71.5038
104.242
151.806
215.209
289.519
367.158
441.952
508.646
564.951
609.734
642.964
666.37
680.328
685.554
683.938
677.951
666.201
650.724
632.098
611.416
589.088
565.921
542.377
519.055
496.365
474.129
452.372
431.105
410.513
390.652
371.731
353.608
336.708
320.625
305.934
291.927
279.684
269.445
259.067
257.793
265.318
304.257
318.462
10.4324
11.6617
13.3228
15.4176
18.042
21.418
25.935
32.194
41.0022
53.4968
71.173
94.9033
125.171
161.348
201.604
243.653
284.923
323.469
357.88
387.076
410.53
428.265
441.034
448.922
451.633
450.569
446.968
440.026
431.199
420.835
409.521
397.57
384.997
371.948
358.564
345.079
331.658
318.468
305.669
293.442
281.818
270.939
260.854
252.15
245.38
239.866
241.268
250.901
293.048
297.622
10.2026
10.7986
11.6188
12.6408
13.8745
15.3608
17.1825
19.4675
22.3755
26.1332
31.096
37.5318
45.8209
56.3516
69.3669
85.0252
103.223
123.642
145.634
168.2
190.285
210.973
229.565
245.644
258.633
268.707
276.181
281.036
283.737
284.217
283.502
281.526
278.096
273.654
268.397
262.463
256.089
249.442
242.775
236.127
229.827
223.819
218.585
214.208
212.09
211.798
216.08
229.35
269.524
264.597
10.0708
10.3176
10.6961
11.1842
11.7762
12.4738
13.2896
14.2474
15.3826
16.7483
18.4089
20.4041
22.8154
25.7365
29.2857
33.5558
38.685
44.8297
52.1324
60.6054
70.1608
80.5952
91.6334
103.013
114.197
124.849
134.655
143.391
151.01
157.372
162.564
166.668
169.681
171.709
172.896
173.289
173.133
172.604
171.751
170.713
169.777
168.989
168.937
169.459
171.658
175.752
184.459
201.82
232.519
217.447
9.9972
10.0623
10.2066
10.4191
10.6902
11.0132
11.3844
11.8027
12.2746
12.8079
13.4127
14.0996
14.8833
15.7727
16.7881
17.949
19.2972
20.8811
22.7333
24.9173
27.4587
30.3975
33.7832
37.6566
41.9741
46.7266
51.806
57.0985
62.5354
67.9626
73.2541
78.3178
83.0998
87.5657
91.7328
95.5698
99.1712
102.51
105.755
108.873
112.011
115.326
119.216
123.801
129.747
136.974
148.976
166.404
181.386
157.92
9.96656
9.95938
10.0005
10.0876
10.207
10.3493
10.5084
10.669
10.8446
11.0261
11.2156
11.415
11.627
11.8525
12.0986
12.3742
12.6832
13.0288
13.4189
13.8744
14.4022
15.0124
15.7258
16.5786
17.6093
18.8342
20.2681
21.9727
23.9913
26.3296
28.9734
31.9091
35.103
38.5496
42.2272
46.0733
50.0936
54.2362
58.5469
62.993
67.6154
72.6626
78.1664
84.4757
91.5001
100.217
111.234
121.997
123.557
94.3931
9.98031
9.99894
10.0556
10.1321
10.2117
10.2826
10.3373
10.3726
10.3859
10.3777
10.3547
10.3172
10.272
10.2133
10.15
10.0889
10.0317
9.97998
9.94179
9.9204
9.91503
9.9248
9.96311
10.0547
10.2152
10.4519
10.7893
11.2636
11.9028
12.7604
13.8732
15.2441
16.8825
18.7948
20.9863
23.4476
26.1864
29.1817
32.473
36.0373
39.9087
44.2237
48.861
54.0623
59.6067
66.0278
71.0896
72.4112
66.8055
39.4583
10.0742
10.2853
10.5209
10.7259
10.8702
10.9412
10.9388
10.8778
10.7562
10.5877
10.4094
10.1835
9.94466
9.6974
9.44681
9.19829
8.95611
8.72365
8.50382
8.29687
8.10407
7.93138
7.79013
7.69122
7.64354
7.64693
7.70593
7.877
8.16891
8.58757
9.16414
9.90028
10.7931
11.8436
13.0571
14.4346
15.98
17.6926
19.5896
21.6635
23.9124
26.3667
28.8918
31.4702
33.7194
35.0909
34.7382
31.7996
23.3506
12.6068
10.4959
11.4409
12.2255
12.78
13.0542
13.0862
12.9513
12.6551
12.2658
11.8269
11.3665
10.8978
10.433
9.97233
9.52365
9.09501
8.69374
8.32065
7.97615
7.65042
7.33882
7.05398
6.80534
6.60276
6.45845
6.38765
6.38477
6.43861
6.60287
6.86758
7.22268
7.66673
8.18738
8.77382
9.41978
10.1178
10.8575
11.6267
12.4193
13.2173
13.9956
14.7126
15.2343
15.5057
15.4186
14.7235
12.8562
10.3947
7.49959
5.40095
13.9881
18.5408
20.5443
21.1018
20.7114
19.915
18.756
17.441
16.1983
15.0439
13.9823
13.0101
12.1146
11.2547
10.4394
9.73001
9.14591
8.62408
8.16524
7.71884
7.18489
6.71923
6.32042
5.99195
5.74364
5.58939
5.53792
5.5566
5.63321
5.76794
5.95384
6.19012
6.47022
6.76467
7.03308
7.29541
7.54832
7.7477
7.85877
7.88691
7.84144
7.7018
7.44858
7.08337
6.60749
6.04126
5.40568
4.81673
4.27976
3.85688
148.915
119.677
90.3742
70.6988
56.9567
47.3983
38.7934
32.8975
29.122
25.9877
23.3514
21.1021
19.1566
17.4559
15.9501
14.591
13.3384
12.17
11.0728
10.0568
9.13375
8.30433
7.57724
6.96392
6.47436
6.11317
5.87843
5.75962
5.73852
5.80049
5.93562
6.11763
6.31686
6.51216
6.68501
6.81961
6.90319
6.93024
6.89387
6.7965
6.64262
6.44168
6.19879
5.94909
5.70188
5.47635
5.24662
5.08592
4.92365
4.8672
)
;

boundaryField
{
    AXIS
    {
        type            empty;
    }
    OUTLET
    {
        type            zeroGradient;
    }
    COFLOW
    {
        type            fixedValue;
        value           uniform 10;
    }
    PILOT
    {
        type            fixedValue;
        value           uniform 10;
    }
    FUEL
    {
        type            fixedValue;
        value           uniform 50;
    }
    WALL
    {
        type            compressible::epsilonWallFunction;
        Cmu             0.09;
        kappa           0.41;
        E               9.8;
        value           nonuniform List<scalar> 
50
(
148.915
119.677
90.3742
70.6988
56.9567
47.3983
38.7934
32.8975
29.122
25.9877
23.3514
21.1021
19.1566
17.4559
15.9501
14.591
13.3384
12.17
11.0728
10.0568
9.13375
8.30433
7.57724
6.96392
6.47436
6.11317
5.87843
5.75962
5.73852
5.80049
5.93562
6.11763
6.31686
6.51216
6.68501
6.81961
6.90319
6.93024
6.89387
6.7965
6.64262
6.44168
6.19879
5.94909
5.70188
5.47635
5.24662
5.08592
4.92365
4.8672
)
;
    }
    front
    {
        type            wedge;
    }
    back
    {
        type            wedge;
    }
}


// ************************************************************************* //
