/*--------------------------------*- C++ -*----------------------------------*\
| =========                 |                                                 |
| \\      /  F ield         | OpenFOAM: The Open Source CFD Toolbox           |
|  \\    /   O peration     | Version:  2.4.x                                 |
|   \\  /    A nd           | Web:      www.OpenFOAM.org                      |
|    \\/     M anipulation  |                                                 |
\*---------------------------------------------------------------------------*/
FoamFile
{
    version     2.0;
    format      ascii;
    class       volScalarField;
    location    "0.1";
    object      H;
}
// * * * * * * * * * * * * * * * * * * * * * * * * * * * * * * * * * * * * * //

dimensions      [0 0 0 0 0 0 0];

internalField   nonuniform List<scalar> 
1250
(
4.3647e-08
1.71828e-07
3.40047e-07
5.43655e-07
8.00709e-07
1.12198e-06
1.5118e-06
1.96448e-06
2.45297e-06
2.90787e-06
3.34769e-06
3.69586e-06
4.04004e-06
4.37815e-06
4.72472e-06
5.07066e-06
5.32679e-06
5.44441e-06
5.57484e-06
5.72026e-06
5.89515e-06
6.10226e-06
6.35141e-06
6.42662e-06
6.44633e-06
6.46893e-06
6.52752e-06
6.64057e-06
6.79091e-06
6.99321e-06
7.25126e-06
7.56368e-06
7.88538e-06
8.12693e-06
8.39823e-06
8.72194e-06
9.09957e-06
9.52804e-06
1.00266e-05
1.05845e-05
1.12529e-05
1.19697e-05
1.27968e-05
1.37563e-05
1.46939e-05
1.5859e-05
1.70602e-05
1.81512e-05
2.01369e-05
2.31367e-05
4.90486e-08
1.94262e-07
3.78866e-07
6.06686e-07
8.9897e-07
1.26288e-06
1.6993e-06
2.19131e-06
2.65266e-06
3.12486e-06
3.56815e-06
3.92032e-06
4.26127e-06
4.60293e-06
4.94861e-06
5.29073e-06
5.53245e-06
5.64747e-06
5.77281e-06
5.919e-06
6.0939e-06
6.30475e-06
6.55468e-06
6.63098e-06
6.67358e-06
6.69079e-06
6.75376e-06
6.86309e-06
7.0143e-06
7.21936e-06
7.47892e-06
7.79484e-06
8.13842e-06
8.3764e-06
8.64769e-06
8.97154e-06
9.34749e-06
9.77623e-06
1.02752e-05
1.08357e-05
1.15031e-05
1.22213e-05
1.30462e-05
1.39998e-05
1.49308e-05
1.60895e-05
1.72715e-05
1.83506e-05
2.02915e-05
2.31328e-05
6.50974e-08
2.58837e-07
4.96185e-07
8.05068e-07
1.20814e-06
1.69176e-06
2.20639e-06
2.6824e-06
3.17478e-06
3.68149e-06
4.11955e-06
4.46665e-06
4.80513e-06
5.14244e-06
5.47345e-06
5.80739e-06
6.01349e-06
6.11537e-06
6.23302e-06
6.37659e-06
6.55249e-06
6.76602e-06
7.01644e-06
7.09659e-06
7.16383e-06
7.19745e-06
7.26079e-06
7.36128e-06
7.51291e-06
7.72059e-06
7.98095e-06
8.3029e-06
8.6785e-06
8.92607e-06
9.1979e-06
9.52195e-06
9.89229e-06
1.03223e-05
1.08201e-05
1.13855e-05
1.20461e-05
1.27659e-05
1.35854e-05
1.4525e-05
1.54415e-05
1.65858e-05
1.77276e-05
1.87691e-05
2.05972e-05
2.31183e-05
1.09457e-07
4.3014e-07
8.40866e-07
1.40435e-06
2.02988e-06
2.58583e-06
3.1397e-06
3.68598e-06
4.21447e-06
4.74098e-06
5.13481e-06
5.45306e-06
5.75849e-06
6.06007e-06
6.36341e-06
6.6723e-06
6.81265e-06
6.88805e-06
6.98977e-06
7.12418e-06
7.2957e-06
7.5038e-06
7.75629e-06
7.83966e-06
7.90385e-06
8.0153e-06
8.05869e-06
8.1533e-06
8.30569e-06
8.50981e-06
8.77543e-06
9.09583e-06
9.46389e-06
9.78776e-06
1.00531e-05
1.03651e-05
1.07287e-05
1.11543e-05
1.16501e-05
1.22114e-05
1.28666e-05
1.3579e-05
1.43907e-05
1.53024e-05
1.61977e-05
1.73165e-05
1.83929e-05
1.93716e-05
2.10297e-05
2.30511e-05
2.94391e-07
1.15091e-06
2.19052e-06
3.0744e-06
3.85189e-06
4.52383e-06
5.08872e-06
5.62673e-06
6.11015e-06
6.58088e-06
6.82458e-06
7.0408e-06
7.25399e-06
7.4721e-06
7.70865e-06
7.97191e-06
8.00775e-06
8.0362e-06
8.10584e-06
8.2146e-06
8.36953e-06
8.56607e-06
8.80759e-06
8.90401e-06
8.95288e-06
9.048e-06
9.18947e-06
9.27259e-06
9.41525e-06
9.61614e-06
9.8709e-06
1.01759e-05
1.05369e-05
1.09548e-05
1.12103e-05
1.15038e-05
1.18537e-05
1.22688e-05
1.27526e-05
1.33024e-05
1.39457e-05
1.46385e-05
1.54315e-05
1.62988e-05
1.71635e-05
1.82406e-05
1.92119e-05
2.01095e-05
2.15223e-05
2.28966e-05
5.2345e-06
5.96166e-06
6.22472e-06
6.59328e-06
6.96294e-06
7.31729e-06
7.65312e-06
8.02342e-06
8.40084e-06
8.75287e-06
8.90687e-06
9.1172e-06
9.37537e-06
9.49438e-06
9.62281e-06
9.77748e-06
9.67393e-06
9.63067e-06
9.64227e-06
9.70438e-06
9.82186e-06
9.9915e-06
1.02102e-05
1.03056e-05
1.03341e-05
1.0421e-05
1.05725e-05
1.07487e-05
1.08657e-05
1.10383e-05
1.12736e-05
1.15642e-05
1.19053e-05
1.22955e-05
1.26697e-05
1.293e-05
1.32545e-05
1.36437e-05
1.41053e-05
1.46351e-05
1.52483e-05
1.59092e-05
1.66642e-05
1.74728e-05
1.82948e-05
1.92969e-05
2.01327e-05
2.09052e-05
2.19935e-05
2.25917e-05
2.11653e-05
1.40956e-05
1.21673e-05
1.14433e-05
1.11367e-05
1.1127e-05
1.11225e-05
1.12121e-05
1.13797e-05
1.1471e-05
1.14795e-05
1.15658e-05
1.17158e-05
1.19257e-05
1.21567e-05
1.20977e-05
1.18643e-05
1.1712e-05
1.16361e-05
1.16279e-05
1.16817e-05
1.17964e-05
1.19712e-05
1.20802e-05
1.20784e-05
1.21425e-05
1.22728e-05
1.24685e-05
1.26572e-05
1.27932e-05
1.29896e-05
1.32403e-05
1.35419e-05
1.38912e-05
1.42873e-05
1.46107e-05
1.48908e-05
1.52423e-05
1.56635e-05
1.61556e-05
1.67197e-05
1.73299e-05
1.80328e-05
1.87664e-05
1.95182e-05
2.0407e-05
2.10644e-05
2.16984e-05
2.23757e-05
2.21267e-05
2.53288e-05
1.81892e-05
1.65709e-05
1.58731e-05
1.53395e-05
1.51791e-05
1.50033e-05
1.4892e-05
1.48566e-05
1.4703e-05
1.45674e-05
1.4516e-05
1.45444e-05
1.46353e-05
1.47886e-05
1.48899e-05
1.45143e-05
1.42376e-05
1.40576e-05
1.39602e-05
1.39366e-05
1.39836e-05
1.40964e-05
1.42001e-05
1.4153e-05
1.41816e-05
1.42791e-05
1.44435e-05
1.46774e-05
1.48428e-05
1.4979e-05
1.51689e-05
1.54085e-05
1.56956e-05
1.60285e-05
1.64022e-05
1.66891e-05
1.69868e-05
1.73512e-05
1.77825e-05
1.82814e-05
1.88315e-05
1.94616e-05
2.00821e-05
2.07434e-05
2.14652e-05
2.19444e-05
2.23807e-05
2.25846e-05
2.15063e-05
1.63575e-05
1.55697e-05
1.55215e-05
1.68707e-05
1.7653e-05
1.79852e-05
1.81668e-05
1.81634e-05
1.81165e-05
1.79421e-05
1.7781e-05
1.76683e-05
1.76138e-05
1.76134e-05
1.76753e-05
1.76736e-05
1.75355e-05
1.71344e-05
1.68425e-05
1.66379e-05
1.65118e-05
1.6466e-05
1.64903e-05
1.65693e-05
1.64752e-05
1.64584e-05
1.65155e-05
1.66395e-05
1.68308e-05
1.70864e-05
1.71588e-05
1.72654e-05
1.74218e-05
1.76282e-05
1.78821e-05
1.81752e-05
1.85041e-05
1.87618e-05
1.90572e-05
1.94232e-05
1.98482e-05
2.03052e-05
2.08195e-05
2.13047e-05
2.18435e-05
2.23819e-05
2.26427e-05
2.28731e-05
2.25426e-05
2.09186e-05
5.27489e-06
6.84921e-06
9.91277e-06
1.34524e-05
1.62759e-05
1.81637e-05
1.93178e-05
1.99743e-05
2.04691e-05
2.0761e-05
2.08935e-05
2.09334e-05
2.09602e-05
2.09745e-05
2.10005e-05
2.08693e-05
2.07828e-05
2.03089e-05
1.98892e-05
1.95538e-05
1.93009e-05
1.91325e-05
1.9028e-05
1.8988e-05
1.88856e-05
1.88306e-05
1.88474e-05
1.89226e-05
1.90612e-05
1.92572e-05
1.93951e-05
1.94091e-05
1.94749e-05
1.95845e-05
1.97409e-05
1.99352e-05
2.01694e-05
2.0433e-05
2.0666e-05
2.09431e-05
2.1262e-05
2.16094e-05
2.19944e-05
2.23446e-05
2.27435e-05
2.30591e-05
2.31281e-05
2.30989e-05
2.22389e-05
2.01527e-05
4.55084e-07
1.62921e-06
3.74969e-06
7.78327e-06
1.19043e-05
1.52034e-05
1.76979e-05
1.94638e-05
2.0784e-05
2.167e-05
2.24535e-05
2.29643e-05
2.33082e-05
2.35588e-05
2.37431e-05
2.37534e-05
2.37443e-05
2.32606e-05
2.27581e-05
2.23295e-05
2.19748e-05
2.17007e-05
2.14843e-05
2.13343e-05
2.12198e-05
2.11454e-05
2.11286e-05
2.11691e-05
2.1264e-05
2.14041e-05
2.1581e-05
2.14999e-05
2.14634e-05
2.1479e-05
2.15288e-05
2.16185e-05
2.17339e-05
2.18836e-05
2.2037e-05
2.22234e-05
2.24398e-05
2.26673e-05
2.29027e-05
2.31015e-05
2.33504e-05
2.34103e-05
2.32619e-05
2.2993e-05
2.18542e-05
1.92002e-05
1.70435e-07
5.78619e-07
1.15709e-06
2.69632e-06
5.60541e-06
9.72324e-06
1.33798e-05
1.62548e-05
1.86438e-05
2.04732e-05
2.18068e-05
2.28012e-05
2.35552e-05
2.41044e-05
2.4571e-05
2.51217e-05
2.53313e-05
2.50824e-05
2.47583e-05
2.44353e-05
2.41249e-05
2.3851e-05
2.36137e-05
2.34168e-05
2.32945e-05
2.32381e-05
2.32219e-05
2.32442e-05
2.33047e-05
2.33995e-05
2.35313e-05
2.33982e-05
2.32643e-05
2.3174e-05
2.31211e-05
2.30976e-05
2.31085e-05
2.31227e-05
2.31593e-05
2.31967e-05
2.325e-05
2.33626e-05
2.34314e-05
2.34605e-05
2.35234e-05
2.33409e-05
2.30011e-05
2.24723e-05
2.1171e-05
1.79939e-05
7.40503e-08
2.69449e-07
5.05652e-07
9.23911e-07
1.81757e-06
3.68976e-06
6.38658e-06
9.69626e-06
1.30814e-05
1.60892e-05
1.85221e-05
2.03615e-05
2.1829e-05
2.28798e-05
2.37003e-05
2.43235e-05
2.46788e-05
2.48522e-05
2.49339e-05
2.49414e-05
2.48889e-05
2.48061e-05
2.47087e-05
2.46156e-05
2.45722e-05
2.46114e-05
2.46572e-05
2.47139e-05
2.47861e-05
2.48707e-05
2.49577e-05
2.47388e-05
2.45519e-05
2.43817e-05
2.42372e-05
2.41186e-05
2.4015e-05
2.39128e-05
2.38246e-05
2.37223e-05
2.36198e-05
2.34997e-05
2.33708e-05
2.32364e-05
2.3093e-05
2.26768e-05
2.22054e-05
2.15729e-05
2.00436e-05
1.64675e-05
3.9472e-08
1.45363e-07
2.77803e-07
4.5502e-07
7.39882e-07
1.21608e-06
2.06768e-06
3.56172e-06
5.78169e-06
8.21491e-06
1.07545e-05
1.3163e-05
1.52888e-05
1.71853e-05
1.8789e-05
2.01402e-05
2.12092e-05
2.2038e-05
2.27044e-05
2.32156e-05
2.35794e-05
2.38297e-05
2.40213e-05
2.41624e-05
2.4319e-05
2.45441e-05
2.47322e-05
2.48989e-05
2.50553e-05
2.52011e-05
2.50893e-05
2.49094e-05
2.47307e-05
2.4554e-05
2.43744e-05
2.41979e-05
2.40206e-05
2.38448e-05
2.36445e-05
2.34407e-05
2.32167e-05
2.29693e-05
2.26758e-05
2.23491e-05
2.1991e-05
2.14523e-05
2.09445e-05
2.0144e-05
1.83676e-05
1.4602e-05
2.45541e-08
8.86263e-08
1.68235e-07
2.7048e-07
4.0086e-07
5.79831e-07
8.37266e-07
1.23215e-06
1.85492e-06
2.82262e-06
4.21133e-06
5.95604e-06
7.91749e-06
9.75675e-06
1.1554e-05
1.32432e-05
1.47849e-05
1.61596e-05
1.73779e-05
1.84645e-05
1.93641e-05
2.01194e-05
2.07594e-05
2.12778e-05
2.18011e-05
2.22694e-05
2.2694e-05
2.30781e-05
2.32313e-05
2.32818e-05
2.32972e-05
2.32703e-05
2.32065e-05
2.31161e-05
2.29895e-05
2.28468e-05
2.2675e-05
2.24797e-05
2.22474e-05
2.19822e-05
2.16916e-05
2.13699e-05
2.09889e-05
2.05885e-05
2.01234e-05
1.95281e-05
1.89788e-05
1.79569e-05
1.61383e-05
1.24444e-05
1.66095e-08
5.8411e-08
1.09231e-07
1.70936e-07
2.47287e-07
3.43225e-07
4.57793e-07
6.11188e-07
8.14965e-07
1.09659e-06
1.47929e-06
1.98364e-06
2.68339e-06
3.60281e-06
4.72674e-06
6.0082e-06
7.38544e-06
8.79975e-06
1.01859e-05
1.15009e-05
1.27103e-05
1.38009e-05
1.47711e-05
1.56234e-05
1.6372e-05
1.70462e-05
1.76611e-05
1.81718e-05
1.8608e-05
1.89673e-05
1.92474e-05
1.94714e-05
1.96249e-05
1.97101e-05
1.97325e-05
1.97067e-05
1.96192e-05
1.94936e-05
1.93216e-05
1.90974e-05
1.88398e-05
1.85303e-05
1.81623e-05
1.77558e-05
1.73104e-05
1.67598e-05
1.61897e-05
1.51079e-05
1.34401e-05
1.00992e-05
1.17218e-08
4.0327e-08
7.45049e-08
1.14857e-07
1.62561e-07
2.1945e-07
2.88151e-07
3.69766e-07
4.64493e-07
5.83486e-07
7.1371e-07
8.66815e-07
1.06625e-06
1.32741e-06
1.67154e-06
2.11833e-06
2.68426e-06
3.37341e-06
4.17059e-06
5.0504e-06
5.95758e-06
6.85626e-06
7.75542e-06
8.63729e-06
9.48512e-06
1.02938e-05
1.10553e-05
1.17651e-05
1.24199e-05
1.3001e-05
1.35174e-05
1.39655e-05
1.43292e-05
1.46223e-05
1.48374e-05
1.49854e-05
1.50643e-05
1.50869e-05
1.50474e-05
1.49525e-05
1.48194e-05
1.46185e-05
1.43733e-05
1.40781e-05
1.37413e-05
1.33173e-05
1.28019e-05
1.18674e-05
1.05101e-05
7.67687e-06
8.41836e-09
2.85143e-08
5.22132e-08
7.97822e-08
1.11659e-07
1.48492e-07
1.91174e-07
2.40885e-07
2.9916e-07
3.62614e-07
4.20269e-07
4.86921e-07
5.64941e-07
6.57146e-07
7.68978e-07
9.04792e-07
1.07791e-06
1.29137e-06
1.53085e-06
1.81256e-06
2.15391e-06
2.55893e-06
3.02094e-06
3.53598e-06
4.09525e-06
4.68433e-06
5.29218e-06
5.91491e-06
6.52561e-06
7.11635e-06
7.67012e-06
8.17597e-06
8.63065e-06
9.03126e-06
9.37687e-06
9.66434e-06
9.89492e-06
1.00733e-05
1.01976e-05
1.02693e-05
1.02992e-05
1.02689e-05
1.02039e-05
1.00898e-05
9.92025e-06
9.66679e-06
9.31694e-06
8.66166e-06
7.59996e-06
5.35474e-06
6.04906e-09
2.02944e-08
3.69642e-08
5.62237e-08
7.82824e-08
1.03415e-07
1.31975e-07
1.64397e-07
1.99643e-07
2.33458e-07
2.69869e-07
3.09236e-07
3.49953e-07
3.93397e-07
4.42363e-07
4.977e-07
5.6058e-07
6.2216e-07
6.85134e-07
7.57633e-07
8.50397e-07
9.5882e-07
1.09551e-06
1.25575e-06
1.45626e-06
1.69333e-06
1.96667e-06
2.27599e-06
2.61287e-06
2.97121e-06
3.34089e-06
3.71515e-06
4.07777e-06
4.42395e-06
4.76667e-06
5.08447e-06
5.37697e-06
5.63685e-06
5.86305e-06
6.05823e-06
6.21897e-06
6.33782e-06
6.42343e-06
6.45456e-06
6.44265e-06
6.3632e-06
6.1815e-06
5.75935e-06
4.94817e-06
3.32781e-06
4.28408e-09
1.43154e-08
2.60367e-08
3.95762e-08
5.50688e-08
7.26584e-08
9.251e-08
1.12695e-07
1.33534e-07
1.55494e-07
1.78569e-07
2.02788e-07
2.28258e-07
2.55127e-07
2.83599e-07
3.12901e-07
3.38726e-07
3.57071e-07
3.76056e-07
3.95968e-07
4.16862e-07
4.44223e-07
4.76761e-07
5.13985e-07
5.61313e-07
6.24056e-07
6.95184e-07
7.92242e-07
9.02681e-07
1.03745e-06
1.18307e-06
1.3611e-06
1.54724e-06
1.75541e-06
1.96611e-06
2.18909e-06
2.40698e-06
2.64188e-06
2.86675e-06
3.08332e-06
3.29553e-06
3.46082e-06
3.59865e-06
3.69758e-06
3.75512e-06
3.76786e-06
3.68436e-06
3.38544e-06
2.83143e-06
1.76382e-06
2.93405e-09
9.8274e-09
1.79386e-08
2.73814e-08
3.79256e-08
4.94286e-08
6.19128e-08
7.5281e-08
8.94268e-08
1.04252e-07
1.19678e-07
1.35632e-07
1.52077e-07
1.68998e-07
1.86409e-07
2.02208e-07
2.11229e-07
2.18813e-07
2.24891e-07
2.2965e-07
2.33557e-07
2.36672e-07
2.39156e-07
2.41246e-07
2.43551e-07
2.56502e-07
2.74521e-07
2.951e-07
3.19405e-07
3.58156e-07
4.06464e-07
4.63236e-07
5.40142e-07
6.25264e-07
7.24967e-07
8.39025e-07
9.58541e-07
1.09677e-06
1.23995e-06
1.38283e-06
1.53481e-06
1.68574e-06
1.83086e-06
1.92251e-06
1.98137e-06
1.99438e-06
1.90791e-06
1.70086e-06
1.34827e-06
7.36222e-07
1.81312e-09
6.13993e-09
1.12793e-08
1.7264e-08
2.40852e-08
3.17011e-08
4.00463e-08
4.90397e-08
5.85927e-08
6.86098e-08
7.90092e-08
8.97127e-08
1.00639e-07
1.11732e-07
1.20398e-07
1.25879e-07
1.30026e-07
1.32695e-07
1.33743e-07
1.33028e-07
1.30371e-07
1.25612e-07
1.18625e-07
1.18417e-07
1.17776e-07
1.16677e-07
1.15797e-07
1.15895e-07
1.17931e-07
1.26136e-07
1.41915e-07
1.63678e-07
1.91505e-07
2.29114e-07
2.75821e-07
3.28455e-07
3.86548e-07
4.54715e-07
5.28619e-07
6.04784e-07
6.82457e-07
7.58545e-07
8.29009e-07
8.86704e-07
9.12351e-07
8.96126e-07
8.31331e-07
7.02308e-07
4.91299e-07
2.44897e-07
9.35209e-10
3.33255e-09
6.33723e-09
9.96415e-09
1.41983e-08
1.90025e-08
2.43303e-08
3.01246e-08
3.63191e-08
4.28458e-08
4.96356e-08
5.66282e-08
6.24966e-08
6.68699e-08
7.04224e-08
7.3012e-08
7.44964e-08
7.47195e-08
7.35174e-08
7.07141e-08
6.61417e-08
6.32575e-08
6.0105e-08
5.59465e-08
5.09088e-08
4.52528e-08
3.97667e-08
3.61219e-08
3.38053e-08
3.39012e-08
3.76543e-08
4.55082e-08
5.74046e-08
7.48875e-08
9.78002e-08
1.2468e-07
1.55032e-07
1.88038e-07
2.22724e-07
2.57804e-07
2.91887e-07
3.2181e-07
3.44413e-07
3.55006e-07
3.56194e-07
3.3765e-07
2.93451e-07
2.23686e-07
1.38211e-07
6.48307e-08
2.93723e-10
1.29966e-09
2.8116e-09
4.7255e-09
7.01515e-09
9.65889e-09
1.26467e-08
1.59484e-08
1.91572e-08
2.22012e-08
2.51212e-08
2.78146e-08
3.01749e-08
3.20942e-08
3.34536e-08
3.4119e-08
3.39465e-08
3.27964e-08
3.13361e-08
3.01539e-08
2.82118e-08
2.55697e-08
2.19998e-08
1.76536e-08
1.26858e-08
7.03196e-09
4.23658e-09
4.47934e-09
4.85179e-09
5.38167e-09
6.17864e-09
7.70755e-09
9.42419e-09
1.12976e-08
2.23546e-08
3.60695e-08
5.15516e-08
6.813e-08
8.44577e-08
9.87694e-08
1.10893e-07
1.19044e-07
1.22993e-07
1.1855e-07
1.0712e-07
9.45103e-08
7.27259e-08
4.89263e-08
2.7268e-08
1.20824e-08
1.11084e-11
2.13576e-10
5.09601e-10
8.22979e-10
1.16751e-09
1.52238e-09
1.88179e-09
2.29959e-09
2.74103e-09
3.15557e-09
3.51566e-09
3.79145e-09
3.95336e-09
3.98034e-09
3.86003e-09
3.52861e-09
2.92204e-09
1.99921e-09
9.25627e-10
9.18434e-10
8.96894e-10
8.60582e-10
8.10898e-10
7.52688e-10
6.9335e-10
6.42783e-10
6.14857e-10
6.22037e-10
6.70638e-10
7.67105e-10
9.1712e-10
1.11678e-09
1.3575e-09
1.63046e-09
1.92306e-09
2.21788e-09
2.49427e-09
2.7297e-09
2.89801e-09
2.97553e-09
2.94566e-09
6.21325e-09
8.95318e-09
1.00083e-08
9.58611e-09
8.06115e-09
5.82498e-09
3.72785e-09
1.96465e-09
1.10134e-09
)
;

boundaryField
{
    AXIS
    {
        type            empty;
    }
    OUTLET
    {
        type            calculated;
        value           nonuniform List<scalar> 
25
(
2.31367e-05
2.31328e-05
2.31183e-05
2.30511e-05
2.28966e-05
2.25917e-05
2.21267e-05
2.15063e-05
2.09186e-05
2.01527e-05
1.92002e-05
1.79939e-05
1.64675e-05
1.4602e-05
1.24444e-05
1.00992e-05
7.67687e-06
5.35474e-06
3.32781e-06
1.76382e-06
7.36222e-07
2.44897e-07
6.48307e-08
1.20824e-08
1.10134e-09
)
;
    }
    COFLOW
    {
        type            calculated;
        value           uniform 0;
    }
    PILOT
    {
        type            calculated;
        value           uniform 1.53392e-05;
    }
    FUEL
    {
        type            calculated;
        value           uniform 0;
    }
    WALL
    {
        type            calculated;
        value           nonuniform List<scalar> 
50
(
1.11084e-11
2.13576e-10
5.09601e-10
8.22979e-10
1.16751e-09
1.52238e-09
1.88179e-09
2.29959e-09
2.74103e-09
3.15557e-09
3.51566e-09
3.79145e-09
3.95336e-09
3.98034e-09
3.86003e-09
3.52861e-09
2.92204e-09
1.99921e-09
9.25627e-10
9.18434e-10
8.96894e-10
8.60582e-10
8.10898e-10
7.52688e-10
6.9335e-10
6.42783e-10
6.14857e-10
6.22037e-10
6.70638e-10
7.67105e-10
9.1712e-10
1.11678e-09
1.3575e-09
1.63046e-09
1.92306e-09
2.21788e-09
2.49427e-09
2.7297e-09
2.89801e-09
2.97553e-09
2.94566e-09
6.21325e-09
8.95318e-09
1.00083e-08
9.58611e-09
8.06115e-09
5.82498e-09
3.72785e-09
1.96465e-09
1.10134e-09
)
;
    }
    front
    {
        type            wedge;
    }
    back
    {
        type            wedge;
    }
}


// ************************************************************************* //
