/*--------------------------------*- C++ -*----------------------------------*\
| =========                 |                                                 |
| \\      /  F ield         | OpenFOAM: The Open Source CFD Toolbox           |
|  \\    /   O peration     | Version:  2.4.x                                 |
|   \\  /    A nd           | Web:      www.OpenFOAM.org                      |
|    \\/     M anipulation  |                                                 |
\*---------------------------------------------------------------------------*/
FoamFile
{
    version     2.0;
    format      ascii;
    class       volScalarField;
    location    "0.1";
    object      H2;
}
// * * * * * * * * * * * * * * * * * * * * * * * * * * * * * * * * * * * * * //

dimensions      [0 0 0 0 0 0 0];

internalField   nonuniform List<scalar> 
1250
(
4.76596e-05
0.000167836
0.000279395
0.000371978
0.000448767
0.000508175
0.000551164
0.000579959
0.000609154
0.000687604
0.000768826
0.000854376
0.000942705
0.0010335
0.00112328
0.00121674
0.00131016
0.00140288
0.00149502
0.00158792
0.00168014
0.00177193
0.00186168
0.00194336
0.00205674
0.00218832
0.00231498
0.00243428
0.00254692
0.00264986
0.00274406
0.0028279
0.00290044
0.00296043
0.00301061
0.00304936
0.00307689
0.0030939
0.00309846
0.00309279
0.00307277
0.00304424
0.00300198
0.00294359
0.00288323
0.00279962
0.00269929
0.00259452
0.00236378
0.00173875
5.64013e-05
0.00018936
0.00030139
0.00039074
0.000460101
0.000509628
0.00054113
0.000559512
0.000625237
0.000703262
0.000783623
0.000867946
0.000956169
0.00104488
0.00113429
0.00122739
0.00132004
0.00141147
0.00150349
0.00159544
0.00168724
0.00177813
0.001867
0.0019478
0.00204376
0.0021757
0.00230182
0.0024212
0.00253305
0.00263557
0.00272907
0.00281212
0.00288417
0.00294366
0.00299316
0.00303128
0.00305837
0.00307472
0.00307879
0.00307244
0.00305214
0.00302298
0.00298058
0.00292204
0.00286179
0.00277804
0.00267847
0.00257363
0.00234331
0.00172244
8.44459e-05
0.000249422
0.000357278
0.000431005
0.000473973
0.000491332
0.000516885
0.000586865
0.000660234
0.000734945
0.000814144
0.000896726
0.000981907
0.00106815
0.00115805
0.00124951
0.00134014
0.00143011
0.00152074
0.00161141
0.00170182
0.00179077
0.00187766
0.00195613
0.00203067
0.00214808
0.0022736
0.0023931
0.00250345
0.00260535
0.00269735
0.00277889
0.00284937
0.00290814
0.00295578
0.00299231
0.00301855
0.0030331
0.00303639
0.00302835
0.00300791
0.00297741
0.0029346
0.00287574
0.00281567
0.00273141
0.00263252
0.00252774
0.002298
0.00168665
0.000171598
0.000375719
0.000444663
0.000447718
0.000451644
0.000510203
0.000571273
0.000634823
0.000703504
0.000775133
0.000852127
0.000931092
0.00101417
0.00110025
0.00118856
0.00127777
0.00136652
0.00145468
0.00154387
0.00163278
0.00172056
0.00180682
0.00188965
0.00196536
0.00203684
0.00210508
0.00223094
0.00234895
0.00245847
0.0025587
0.0026485
0.00272749
0.00279643
0.00285344
0.0028989
0.00293405
0.00295818
0.00297104
0.00297247
0.00296312
0.00294135
0.00290971
0.00286554
0.00280667
0.00274628
0.00266113
0.00256431
0.00246008
0.00223132
0.00163381
0.000501929
0.000598991
0.000472718
0.000492269
0.000522935
0.000561901
0.000612482
0.000670421
0.000736563
0.00080717
0.000883345
0.00096259
0.00104497
0.00112954
0.0012169
0.00130618
0.00139323
0.00148077
0.00156778
0.00165421
0.00173841
0.00182041
0.00189935
0.00197108
0.00203927
0.00210393
0.00217325
0.00229068
0.00239827
0.00249574
0.00258309
0.00266031
0.00272622
0.00278077
0.00282447
0.00285696
0.00287871
0.00288919
0.00288872
0.00287775
0.00285404
0.00282134
0.00277555
0.00271707
0.00265617
0.00257018
0.00247539
0.00237286
0.0021454
0.00156663
0.00131624
0.000694602
0.00059735
0.000592647
0.00061793
0.000656665
0.000706092
0.000762882
0.000821019
0.000879542
0.000939505
0.00100157
0.00106463
0.00115028
0.00123968
0.00132879
0.00141558
0.00150146
0.00158643
0.0016699
0.00175003
0.0018273
0.00190114
0.00196947
0.00203333
0.00209425
0.00215083
0.00221828
0.00232383
0.00241946
0.00250322
0.00257628
0.00263901
0.00269107
0.00273204
0.00276232
0.00278099
0.00278945
0.00278656
0.00277314
0.00274782
0.00271357
0.00266687
0.00260845
0.00254715
0.0024605
0.00236895
0.00226754
0.00204373
0.0014884
0.00140587
0.000870885
0.000716066
0.000687199
0.000699064
0.000736205
0.000784944
0.000839258
0.000896802
0.000954455
0.00101296
0.00107223
0.00113115
0.00118964
0.001251
0.00134044
0.0014271
0.00151189
0.00159441
0.00167429
0.00174981
0.00182251
0.00189214
0.00195608
0.0020155
0.00207167
0.00212385
0.00217169
0.00223703
0.00232839
0.00240884
0.00247867
0.00253775
0.00258624
0.00262323
0.00265027
0.00266676
0.00267235
0.00266749
0.0026517
0.00262496
0.00258947
0.00254138
0.00248339
0.00242164
0.00233519
0.00224733
0.00214773
0.00193003
0.0014017
0.00100901
0.00084398
0.000721302
0.00071203
0.000732656
0.000777769
0.000832495
0.000890364
0.000949637
0.00100766
0.00106498
0.00112182
0.00117777
0.00123214
0.00128484
0.00133611
0.00142158
0.00150472
0.00158471
0.00166109
0.00173381
0.00180243
0.00186691
0.00192665
0.00198205
0.00203297
0.00208016
0.00212316
0.00216154
0.00222668
0.00230251
0.00236769
0.00242267
0.00246747
0.00250095
0.0025242
0.00253762
0.00254038
0.00253285
0.00251532
0.00248722
0.00245062
0.00240179
0.00234458
0.00228304
0.00219705
0.0021141
0.00201644
0.00180757
0.00130933
0.000521396
0.000634646
0.000614867
0.000655709
0.000712183
0.00076934
0.000835438
0.000900804
0.0009649
0.00102526
0.00108366
0.00114014
0.00119473
0.00124689
0.00129686
0.00134547
0.0014017
0.00148253
0.00155932
0.00163206
0.0017001
0.00176372
0.00182319
0.00187782
0.00192892
0.00197527
0.00201779
0.00205547
0.00208935
0.00211831
0.00218579
0.00224638
0.0022964
0.00233665
0.002366
0.00238563
0.00239579
0.00239593
0.00238618
0.00236681
0.00233759
0.00229979
0.00225071
0.00219476
0.00213334
0.00204954
0.00197174
0.00187747
0.00167974
0.00120978
0.000148426
0.000352971
0.000409047
0.000522133
0.000618757
0.000705493
0.000785013
0.000862139
0.00093574
0.00100786
0.00107616
0.00114035
0.00120035
0.0012564
0.0013073
0.00134874
0.00138863
0.00145811
0.00152807
0.00159366
0.00165473
0.0017108
0.00176223
0.00180895
0.00185441
0.0018965
0.00193466
0.00196789
0.00199719
0.00202216
0.00205982
0.00211462
0.00215978
0.00219522
0.00222117
0.00223706
0.00224388
0.00224125
0.00222935
0.0022084
0.00217839
0.00214009
0.00209146
0.00203742
0.00197672
0.00189624
0.00182449
0.0017342
0.00155014
0.0011108
1.99237e-05
0.00015011
0.000234716
0.000341642
0.000461529
0.000574423
0.000674996
0.000767215
0.000844421
0.000919476
0.000994221
0.00106642
0.00113287
0.00119531
0.00125168
0.00129614
0.00133714
0.00140029
0.00146333
0.00152216
0.00157683
0.00162684
0.00167296
0.00171473
0.00175484
0.00179269
0.0018261
0.0018556
0.0018813
0.00190299
0.00192221
0.0019711
0.0020103
0.00204107
0.00206233
0.00207492
0.00207846
0.00207377
0.00206023
0.00203825
0.00200793
0.00196977
0.00192235
0.00187054
0.00181156
0.00173595
0.00167065
0.00158538
0.00141307
0.00101155
1.24631e-05
6.29645e-05
0.000130103
0.000199859
0.000291002
0.000392594
0.000501578
0.000600571
0.000691258
0.000775025
0.000850094
0.000921715
0.000987711
0.00104891
0.00110401
0.00115852
0.00122031
0.0012869
0.00134691
0.00140287
0.00145451
0.00150182
0.00154519
0.00158444
0.00162033
0.00165408
0.0016838
0.0017098
0.00173214
0.00175133
0.00176709
0.00180473
0.0018379
0.00186343
0.00188044
0.0018894
0.00189055
0.00188346
0.00186904
0.00184708
0.00181778
0.00178072
0.00173559
0.0016867
0.00163039
0.00156168
0.00150409
0.00142499
0.00126571
0.000907412
7.26708e-06
3.12862e-05
6.45116e-05
0.000108763
0.00016647
0.000227807
0.000310527
0.000401109
0.000487341
0.000568561
0.000646976
0.000725873
0.000798435
0.000866723
0.000931909
0.000995324
0.0010571
0.00111646
0.00117276
0.00122625
0.00127638
0.00132286
0.00136577
0.0014053
0.00144007
0.00147
0.00149676
0.00152046
0.00154081
0.00155872
0.00157444
0.00160842
0.00163542
0.0016558
0.00166856
0.00167453
0.00167341
0.00166526
0.00165048
0.00162902
0.00160142
0.00156788
0.00152727
0.00148259
0.00143102
0.00137158
0.00132248
0.00124764
0.00110635
0.00079629
4.49576e-06
1.75741e-05
3.52677e-05
5.72238e-05
8.67021e-05
0.000123311
0.000167078
0.000217674
0.000273952
0.000352421
0.000432514
0.00051139
0.000586982
0.000652952
0.00071703
0.000778635
0.000837788
0.000895109
0.000949239
0.00100057
0.00104903
0.00109442
0.00113676
0.00117598
0.00120962
0.00123743
0.00126262
0.00128533
0.00130543
0.00132314
0.00135162
0.00137858
0.00140001
0.00141642
0.00142582
0.00142981
0.00142771
0.00141962
0.0014058
0.00138631
0.00136164
0.00133188
0.00129687
0.00125882
0.00121513
0.00116596
0.00112436
0.001056
0.000939644
0.000679682
2.93059e-06
1.07919e-05
2.08414e-05
3.31241e-05
4.73087e-05
6.40981e-05
8.4267e-05
0.000109241
0.000140265
0.00017924
0.000226163
0.000276107
0.000325404
0.00038538
0.000445154
0.000503357
0.000559918
0.000614974
0.000668345
0.000719971
0.000769038
0.000815162
0.000858337
0.000898675
0.000930619
0.000958785
0.000984927
0.00100881
0.00103829
0.00106754
0.00109358
0.00111579
0.00113359
0.00114715
0.00115482
0.00115887
0.00115749
0.0011509
0.00113999
0.00112439
0.00110458
0.0010804
0.00105248
0.00102143
0.000987413
0.000950323
0.000917255
0.000860498
0.000770508
0.000561606
1.96897e-06
6.94178e-06
1.29615e-05
1.99614e-05
2.7935e-05
3.69088e-05
4.64264e-05
5.75098e-05
7.03654e-05
8.57709e-05
0.000104367
0.000126149
0.000153317
0.00018568
0.000222608
0.000262898
0.000305275
0.000348685
0.000392871
0.000436263
0.00047948
0.000522017
0.000563461
0.000599727
0.000634238
0.000667667
0.000699295
0.000729744
0.000757998
0.000783803
0.000807285
0.000827536
0.000844256
0.000857627
0.000866598
0.000872071
0.000872936
0.000870606
0.000864573
0.000854268
0.000840937
0.000824171
0.000805178
0.000783634
0.000760702
0.000735898
0.000712196
0.000670805
0.0006046
0.000445929
1.33442e-06
4.57185e-06
8.36618e-06
1.26543e-05
1.73753e-05
2.24942e-05
2.8018e-05
3.38419e-05
3.98312e-05
4.64708e-05
5.33155e-05
6.07572e-05
6.94736e-05
7.98845e-05
9.28389e-05
0.000108887
0.000128707
0.000152438
0.000179509
0.000209294
0.000240178
0.000271971
0.000303137
0.000333801
0.000363557
0.000392595
0.000420325
0.000446868
0.000471838
0.00049573
0.000517727
0.000536918
0.000554198
0.000568359
0.00057976
0.000588366
0.000593606
0.000596154
0.000595727
0.000592616
0.000587559
0.00057957
0.000570124
0.000559057
0.000547543
0.000534181
0.000521701
0.000498788
0.000452317
0.000334751
9.01148e-07
3.0335e-06
5.48759e-06
8.22145e-06
1.11856e-05
1.43335e-05
1.7628e-05
2.10477e-05
2.45876e-05
2.80752e-05
3.10571e-05
3.40715e-05
3.71543e-05
4.03917e-05
4.40734e-05
4.81142e-05
5.32858e-05
5.93863e-05
6.77548e-05
7.807e-05
9.02726e-05
0.000104417
0.000120058
0.000137144
0.000155602
0.000174631
0.000193982
0.000214087
0.000233379
0.000252405
0.000270936
0.00028797
0.000303524
0.000317636
0.000330169
0.000340659
0.000349592
0.000356595
0.000361633
0.000364835
0.000366768
0.000367026
0.000366745
0.000365739
0.00036427
0.00036154
0.000359649
0.000349455
0.000316874
0.000232762
6.00395e-07
2.0014e-06
3.60058e-06
5.37358e-06
7.28885e-06
9.31158e-06
1.14072e-05
1.35439e-05
1.56464e-05
1.75426e-05
1.93229e-05
2.09604e-05
2.23574e-05
2.35585e-05
2.46495e-05
2.562e-05
2.64693e-05
2.80851e-05
3.01997e-05
3.24494e-05
3.53682e-05
3.85348e-05
4.25205e-05
4.69409e-05
5.25638e-05
5.91301e-05
6.66122e-05
7.50911e-05
8.42695e-05
9.42294e-05
0.000104772
0.000115811
0.000126551
0.000136867
0.000147789
0.000158071
0.000167779
0.00017659
0.000184424
0.000191824
0.000198478
0.000204355
0.000210061
0.000215386
0.000220639
0.000225367
0.000229791
0.000225848
0.000203472
0.0001448
3.90161e-07
1.29581e-06
2.32931e-06
3.47816e-06
4.72429e-06
6.04502e-06
7.41518e-06
8.74267e-06
1.00052e-05
1.11864e-05
1.22568e-05
1.31893e-05
1.39619e-05
1.45546e-05
1.495e-05
1.51196e-05
1.53084e-05
1.57623e-05
1.61317e-05
1.64163e-05
1.66019e-05
1.69137e-05
1.72228e-05
1.74754e-05
1.78736e-05
1.85526e-05
1.92534e-05
2.06263e-05
2.25323e-05
2.60872e-05
2.989e-05
3.47526e-05
3.98067e-05
4.56279e-05
5.15049e-05
5.78704e-05
6.4072e-05
7.11789e-05
7.79907e-05
8.47028e-05
9.14722e-05
9.88428e-05
0.000106391
0.000113924
0.000121396
0.000128371
0.000133743
0.000130714
0.000116759
7.68424e-05
2.4296e-07
8.09098e-07
1.46044e-06
2.19184e-06
2.98301e-06
3.81242e-06
4.66071e-06
5.5029e-06
6.31241e-06
7.06312e-06
7.73016e-06
8.2893e-06
8.71898e-06
8.99942e-06
9.11214e-06
9.13854e-06
9.30173e-06
9.34362e-06
9.25474e-06
9.05391e-06
8.71613e-06
8.2294e-06
7.58547e-06
6.77895e-06
5.83071e-06
6.15216e-06
6.60297e-06
7.10292e-06
7.68133e-06
8.63659e-06
9.82472e-06
1.12196e-05
1.31611e-05
1.53116e-05
1.78694e-05
2.08412e-05
2.39674e-05
2.77058e-05
3.1617e-05
3.55472e-05
3.98387e-05
4.41507e-05
4.8326e-05
5.43928e-05
6.06459e-05
6.58917e-05
6.80878e-05
6.60375e-05
5.62212e-05
3.16029e-05
1.38039e-07
4.65517e-07
8.48253e-07
1.28251e-06
1.75977e-06
2.26757e-06
2.79046e-06
3.31087e-06
3.81009e-06
4.26868e-06
4.66762e-06
4.98845e-06
5.21265e-06
5.32314e-06
5.42001e-06
5.52057e-06
5.52383e-06
5.41913e-06
5.19491e-06
4.83884e-06
4.33557e-06
3.6692e-06
2.82326e-06
2.79512e-06
2.78152e-06
2.75164e-06
2.72176e-06
2.71049e-06
2.74186e-06
2.91966e-06
3.27784e-06
3.78231e-06
4.43864e-06
5.34206e-06
6.48233e-06
7.78408e-06
9.2366e-06
1.09708e-05
1.28755e-05
1.48573e-05
1.6893e-05
1.88975e-05
2.07612e-05
2.27067e-05
2.63445e-05
2.88114e-05
2.99138e-05
2.75659e-05
2.02271e-05
1.01414e-05
6.53091e-08
2.3135e-07
4.34963e-07
6.72714e-07
9.38106e-07
1.22231e-06
1.5151e-06
1.805e-06
2.07957e-06
2.3258e-06
2.53022e-06
2.67974e-06
2.81825e-06
2.94578e-06
3.01496e-06
3.01684e-06
2.94205e-06
2.78005e-06
2.51921e-06
2.14675e-06
1.64975e-06
1.49018e-06
1.41185e-06
1.30902e-06
1.18464e-06
1.04484e-06
9.08394e-07
8.10778e-07
7.40656e-07
7.25609e-07
7.97767e-07
9.6996e-07
1.24221e-06
1.64708e-06
2.18692e-06
2.83343e-06
3.57496e-06
4.39102e-06
5.25645e-06
6.13836e-06
7.0002e-06
7.75845e-06
8.33352e-06
8.60439e-06
9.87247e-06
1.09008e-05
1.04721e-05
8.51226e-06
5.44216e-06
2.57258e-06
1.80695e-08
7.90303e-08
1.66421e-07
2.70298e-07
3.85311e-07
5.06104e-07
6.27765e-07
7.44139e-07
8.64974e-07
9.84136e-07
1.08945e-06
1.17478e-06
1.23376e-06
1.26009e-06
1.24701e-06
1.18666e-06
1.07004e-06
8.88134e-07
7.39529e-07
7.09873e-07
6.61901e-07
5.96991e-07
5.0963e-07
4.03379e-07
2.81873e-07
1.43484e-07
7.56663e-08
8.19288e-08
9.00779e-08
1.00386e-07
1.13965e-07
1.35757e-07
1.59773e-07
1.85537e-07
4.44125e-07
7.71444e-07
1.14539e-06
1.54938e-06
1.94963e-06
2.30185e-06
2.60255e-06
2.8063e-06
2.90501e-06
2.79478e-06
2.57367e-06
2.7285e-06
2.33522e-06
1.67613e-06
9.61898e-07
4.32638e-07
5.57878e-10
9.69688e-09
2.16381e-08
3.14629e-08
3.98239e-08
4.52927e-08
4.73151e-08
5.4307e-08
6.46221e-08
7.42473e-08
8.25213e-08
8.87285e-08
9.21612e-08
9.23196e-08
8.89203e-08
8.04269e-08
6.53028e-08
4.25626e-08
1.63486e-08
1.68883e-08
1.73245e-08
1.76693e-08
1.79626e-08
1.82869e-08
1.8752e-08
1.9489e-08
2.06589e-08
2.23829e-08
2.46933e-08
2.76077e-08
3.1125e-08
3.50964e-08
3.93071e-08
4.35525e-08
4.75946e-08
5.11568e-08
5.39521e-08
5.57118e-08
5.61297e-08
5.50241e-08
5.22518e-08
1.32544e-07
2.0124e-07
2.29518e-07
2.22171e-07
1.88012e-07
1.36345e-07
8.74387e-08
4.60412e-08
2.60068e-08
)
;

boundaryField
{
    AXIS
    {
        type            empty;
    }
    OUTLET
    {
        type            calculated;
        value           nonuniform List<scalar> 
25
(
0.00173875
0.00172244
0.00168665
0.00163381
0.00156663
0.0014884
0.0014017
0.00130933
0.00120978
0.0011108
0.00101155
0.000907412
0.00079629
0.000679682
0.000561606
0.000445929
0.000334751
0.000232762
0.0001448
7.68424e-05
3.16029e-05
1.01414e-05
2.57258e-06
4.32638e-07
2.60068e-08
)
;
    }
    COFLOW
    {
        type            calculated;
        value           uniform 0;
    }
    PILOT
    {
        type            calculated;
        value           uniform 0.000147124;
    }
    FUEL
    {
        type            calculated;
        value           uniform 0;
    }
    WALL
    {
        type            calculated;
        value           nonuniform List<scalar> 
50
(
5.57878e-10
9.69688e-09
2.16381e-08
3.14629e-08
3.98239e-08
4.52927e-08
4.73151e-08
5.4307e-08
6.46221e-08
7.42473e-08
8.25213e-08
8.87285e-08
9.21612e-08
9.23196e-08
8.89203e-08
8.04269e-08
6.53028e-08
4.25626e-08
1.63486e-08
1.68883e-08
1.73245e-08
1.76693e-08
1.79626e-08
1.82869e-08
1.8752e-08
1.9489e-08
2.06589e-08
2.23829e-08
2.46933e-08
2.76077e-08
3.1125e-08
3.50964e-08
3.93071e-08
4.35525e-08
4.75946e-08
5.11568e-08
5.39521e-08
5.57118e-08
5.61297e-08
5.50241e-08
5.22518e-08
1.32544e-07
2.0124e-07
2.29518e-07
2.22171e-07
1.88012e-07
1.36345e-07
8.74387e-08
4.60412e-08
2.60068e-08
)
;
    }
    front
    {
        type            wedge;
    }
    back
    {
        type            wedge;
    }
}


// ************************************************************************* //
