/*--------------------------------*- C++ -*----------------------------------*\
| =========                 |                                                 |
| \\      /  F ield         | OpenFOAM: The Open Source CFD Toolbox           |
|  \\    /   O peration     | Version:  2.4.x                                 |
|   \\  /    A nd           | Web:      www.OpenFOAM.org                      |
|    \\/     M anipulation  |                                                 |
\*---------------------------------------------------------------------------*/
FoamFile
{
    version     2.0;
    format      ascii;
    class       volScalarField;
    location    "0.1";
    object      H2CN;
}
// * * * * * * * * * * * * * * * * * * * * * * * * * * * * * * * * * * * * * //

dimensions      [0 0 0 0 0 0 0];

internalField   nonuniform List<scalar> 
1250
(
1.77914e-13
6.87105e-13
1.35357e-12
2.3027e-12
3.77708e-12
5.94852e-12
8.89981e-12
1.26112e-11
1.70414e-11
2.30085e-11
2.9243e-11
3.48049e-11
4.02685e-11
4.52365e-11
4.99598e-11
5.41474e-11
5.68583e-11
5.80291e-11
5.88776e-11
5.91272e-11
5.80345e-11
5.73844e-11
5.87158e-11
5.86683e-11
5.82964e-11
5.71181e-11
5.6496e-11
5.72434e-11
5.82784e-11
5.92619e-11
6.01018e-11
6.10759e-11
6.21243e-11
6.27255e-11
6.36193e-11
6.4711e-11
6.5853e-11
6.71593e-11
6.86115e-11
7.02108e-11
7.1775e-11
7.32133e-11
7.4561e-11
7.54973e-11
7.64464e-11
7.6992e-11
7.59896e-11
7.57435e-11
7.50713e-11
6.31629e-11
2.06435e-13
7.85278e-13
1.53203e-12
2.65805e-12
4.44266e-12
7.03134e-12
1.04672e-11
1.46016e-11
2.03516e-11
2.67737e-11
3.32351e-11
3.89831e-11
4.44094e-11
4.94217e-11
5.40948e-11
5.79936e-11
6.04322e-11
6.14274e-11
6.20294e-11
6.16994e-11
6.05196e-11
6.05136e-11
6.19628e-11
6.1639e-11
5.98014e-11
5.84336e-11
5.81842e-11
5.89284e-11
5.98979e-11
6.07305e-11
6.15002e-11
6.24932e-11
6.36101e-11
6.4156e-11
6.49741e-11
6.5966e-11
6.70371e-11
6.8277e-11
6.96732e-11
7.11893e-11
7.26656e-11
7.39987e-11
7.52618e-11
7.61037e-11
7.69531e-11
7.7381e-11
7.62413e-11
7.59173e-11
7.5063e-11
6.28019e-11
2.96313e-13
1.07892e-12
2.12356e-12
3.9068e-12
6.72219e-12
1.05219e-11
1.56278e-11
2.23699e-11
2.95345e-11
3.68225e-11
4.35963e-11
4.94176e-11
5.47718e-11
5.9657e-11
6.37378e-11
6.7145e-11
6.8862e-11
6.92794e-11
6.90024e-11
6.78113e-11
6.7123e-11
6.80404e-11
6.94215e-11
6.73784e-11
6.34227e-11
6.1699e-11
6.19942e-11
6.27027e-11
6.34782e-11
6.39678e-11
6.45876e-11
6.56059e-11
6.67773e-11
6.7281e-11
6.79316e-11
6.86853e-11
6.95926e-11
7.06937e-11
7.19641e-11
7.32923e-11
7.45929e-11
7.569e-11
7.6771e-11
7.74062e-11
7.80447e-11
7.81903e-11
7.66924e-11
7.61355e-11
7.48704e-11
6.20118e-11
5.7364e-13
1.92745e-12
4.27232e-12
8.39804e-12
1.4648e-11
2.32227e-11
3.21355e-11
4.10969e-11
4.93745e-11
5.72411e-11
6.36999e-11
6.89781e-11
7.34676e-11
7.72738e-11
8.03168e-11
8.26363e-11
8.29409e-11
8.1891e-11
8.00985e-11
7.91769e-11
7.99136e-11
8.06562e-11
7.91583e-11
7.44045e-11
7.03504e-11
6.78246e-11
6.81726e-11
6.85875e-11
6.86495e-11
6.88609e-11
6.94955e-11
7.04035e-11
7.13551e-11
7.1923e-11
7.22025e-11
7.26644e-11
7.33389e-11
7.42479e-11
7.5274e-11
7.63394e-11
7.73078e-11
7.80873e-11
7.88876e-11
7.91519e-11
7.94107e-11
7.90962e-11
7.72627e-11
7.63749e-11
7.45439e-11
6.07843e-11
1.85746e-12
6.897e-12
1.77331e-11
3.38308e-11
4.85877e-11
6.15722e-11
7.16926e-11
8.10684e-11
8.84271e-11
9.47639e-11
9.85197e-11
1.01366e-10
1.034e-10
1.04708e-10
1.05504e-10
1.05938e-10
1.03426e-10
1.00712e-10
9.98034e-11
9.91686e-11
9.69991e-11
9.34179e-11
8.94139e-11
8.51857e-11
8.18876e-11
7.94219e-11
7.64323e-11
7.57899e-11
7.55319e-11
7.57611e-11
7.62902e-11
7.68537e-11
7.73119e-11
7.76689e-11
7.75562e-11
7.76765e-11
7.80977e-11
7.87127e-11
7.93876e-11
8.00512e-11
8.05553e-11
8.09771e-11
8.13907e-11
8.11119e-11
8.08765e-11
8.0037e-11
7.76838e-11
7.63988e-11
7.38408e-11
5.91536e-11
4.73592e-11
8.71577e-11
1.02202e-10
1.12008e-10
1.19853e-10
1.2657e-10
1.30983e-10
1.35246e-10
1.38648e-10
1.4134e-10
1.42421e-10
1.44018e-10
1.45884e-10
1.43875e-10
1.41075e-10
1.38113e-10
1.33793e-10
1.29478e-10
1.2466e-10
1.19359e-10
1.13999e-10
1.09856e-10
1.06834e-10
1.03168e-10
9.78386e-11
9.26673e-11
8.80988e-11
8.49904e-11
8.48162e-11
8.48284e-11
8.44851e-11
8.42897e-11
8.41183e-11
8.39104e-11
8.36276e-11
8.34831e-11
8.35564e-11
8.37619e-11
8.38833e-11
8.40022e-11
8.40699e-11
8.40479e-11
8.38444e-11
8.28678e-11
8.21309e-11
8.07168e-11
7.78115e-11
7.60511e-11
7.26247e-11
5.71761e-11
2.33342e-10
2.63365e-10
2.46535e-10
2.32577e-10
2.23564e-10
2.20718e-10
2.14291e-10
2.09109e-10
2.04877e-10
2.00615e-10
1.96414e-10
1.93173e-10
1.90597e-10
1.88702e-10
1.86614e-10
1.78485e-10
1.69135e-10
1.60734e-10
1.53548e-10
1.47568e-10
1.4087e-10
1.34331e-10
1.27866e-10
1.21358e-10
1.14872e-10
1.0927e-10
1.04264e-10
9.89871e-11
9.52767e-11
9.42353e-11
9.33434e-11
9.24825e-11
9.16476e-11
9.08941e-11
9.01908e-11
8.95998e-11
8.91208e-11
8.86643e-11
8.82467e-11
8.79757e-11
8.74715e-11
8.67258e-11
8.57493e-11
8.41603e-11
8.29376e-11
8.08472e-11
7.7368e-11
7.51469e-11
7.08371e-11
5.50003e-11
8.63077e-11
2.8539e-10
3.2601e-10
3.26999e-10
3.17176e-10
3.11038e-10
2.99845e-10
2.88165e-10
2.77091e-10
2.66687e-10
2.56939e-10
2.48282e-10
2.40733e-10
2.34109e-10
2.28344e-10
2.23308e-10
2.1043e-10
1.98603e-10
1.87744e-10
1.77739e-10
1.68528e-10
1.6009e-10
1.52412e-10
1.4429e-10
1.35611e-10
1.27838e-10
1.20743e-10
1.14195e-10
1.07931e-10
1.04409e-10
1.02683e-10
1.01092e-10
9.96278e-11
9.82516e-11
9.67227e-11
9.51337e-11
9.39322e-11
9.31105e-11
9.21993e-11
9.11715e-11
8.9861e-11
8.84527e-11
8.68946e-11
8.47475e-11
8.30037e-11
8.01258e-11
7.6206e-11
7.34603e-11
6.84336e-11
5.24048e-11
2.36292e-11
1.6468e-10
2.495e-10
3.11139e-10
3.40039e-10
3.50526e-10
3.50756e-10
3.42709e-10
3.32105e-10
3.21409e-10
3.09958e-10
2.98542e-10
2.87743e-10
2.77655e-10
2.68517e-10
2.6126e-10
2.52755e-10
2.37621e-10
2.23484e-10
2.10207e-10
1.97785e-10
1.86237e-10
1.75451e-10
1.65237e-10
1.55681e-10
1.46528e-10
1.37965e-10
1.29836e-10
1.2206e-10
1.14522e-10
1.1172e-10
1.09323e-10
1.06897e-10
1.04546e-10
1.02354e-10
1.00195e-10
9.80417e-11
9.62949e-11
9.46118e-11
9.29182e-11
9.10658e-11
8.91313e-11
8.69295e-11
8.41954e-11
8.18894e-11
7.83115e-11
7.40693e-11
7.09773e-11
6.54902e-11
4.93638e-11
4.15203e-12
3.13341e-11
1.07735e-10
1.92379e-10
2.63441e-10
3.10219e-10
3.36831e-10
3.47143e-10
3.52899e-10
3.52117e-10
3.4734e-10
3.38765e-10
3.29994e-10
3.2347e-10
3.15694e-10
3.05979e-10
2.97157e-10
2.78062e-10
2.59148e-10
2.41714e-10
2.25648e-10
2.10887e-10
1.97114e-10
1.84145e-10
1.73229e-10
1.63024e-10
1.53251e-10
1.43646e-10
1.34393e-10
1.25441e-10
1.18981e-10
1.15809e-10
1.12744e-10
1.09665e-10
1.06643e-10
1.03548e-10
1.00555e-10
9.76289e-11
9.53525e-11
9.32261e-11
9.08522e-11
8.83586e-11
8.55683e-11
8.23919e-11
7.96007e-11
7.54454e-11
7.11463e-11
6.77771e-11
6.20954e-11
4.61951e-11
3.14995e-13
3.42215e-12
1.63356e-11
7.10142e-11
1.4168e-10
2.06107e-10
2.57336e-10
2.91761e-10
3.16449e-10
3.29394e-10
3.38858e-10
3.39423e-10
3.37253e-10
3.32359e-10
3.2551e-10
3.18369e-10
3.10623e-10
2.93651e-10
2.75723e-10
2.58478e-10
2.41975e-10
2.26277e-10
2.11363e-10
1.97225e-10
1.85055e-10
1.73967e-10
1.63234e-10
1.5284e-10
1.42755e-10
1.32829e-10
1.23346e-10
1.19396e-10
1.15564e-10
1.11889e-10
1.08278e-10
1.04792e-10
1.01324e-10
9.79765e-11
9.45494e-11
9.16897e-11
8.88499e-11
8.59027e-11
8.26484e-11
7.91655e-11
7.59889e-11
7.14321e-11
6.724e-11
6.38293e-11
5.83812e-11
4.2587e-11
1.68602e-13
8.45998e-13
2.62767e-12
9.21302e-12
3.56294e-11
8.91035e-11
1.44697e-10
1.89976e-10
2.29217e-10
2.59114e-10
2.8056e-10
2.93577e-10
3.02274e-10
3.06216e-10
3.07304e-10
3.06714e-10
2.99508e-10
2.86185e-10
2.72177e-10
2.57614e-10
2.42843e-10
2.28175e-10
2.13883e-10
2.00004e-10
1.87595e-10
1.76561e-10
1.65631e-10
1.54877e-10
1.44356e-10
1.34094e-10
1.24101e-10
1.19199e-10
1.15048e-10
1.11023e-10
1.07072e-10
1.03176e-10
9.93894e-11
9.56005e-11
9.19011e-11
8.8238e-11
8.46851e-11
8.14619e-11
7.78741e-11
7.42103e-11
7.07762e-11
6.61066e-11
6.22426e-11
5.90953e-11
5.32919e-11
3.83185e-11
8.71252e-14
3.66129e-13
8.17406e-13
1.86678e-12
4.90408e-12
1.29225e-11
3.57492e-11
7.1493e-11
1.12264e-10
1.50283e-10
1.82467e-10
2.06497e-10
2.25184e-10
2.40444e-10
2.47554e-10
2.5015e-10
2.47777e-10
2.42828e-10
2.364e-10
2.27999e-10
2.18239e-10
2.07633e-10
1.96692e-10
1.8554e-10
1.74874e-10
1.65233e-10
1.55459e-10
1.45659e-10
1.35908e-10
1.26303e-10
1.17062e-10
1.13027e-10
1.09046e-10
1.0507e-10
1.01127e-10
9.72557e-11
9.34253e-11
8.96189e-11
8.58619e-11
8.21054e-11
7.83873e-11
7.4718e-11
7.09614e-11
6.73096e-11
6.37848e-11
5.93848e-11
5.60267e-11
5.28378e-11
4.72987e-11
3.33073e-11
5.05682e-14
1.96596e-13
4.00792e-13
7.05604e-13
1.28214e-12
2.47355e-12
5.10405e-12
1.05528e-11
2.09974e-11
4.02549e-11
6.31527e-11
8.65418e-11
1.08022e-10
1.25837e-10
1.40147e-10
1.5151e-10
1.59738e-10
1.63844e-10
1.66328e-10
1.6663e-10
1.6465e-10
1.60814e-10
1.55836e-10
1.49727e-10
1.42835e-10
1.35974e-10
1.28862e-10
1.21522e-10
1.14008e-10
1.06417e-10
1.02324e-10
9.91386e-11
9.58848e-11
9.26036e-11
8.92231e-11
8.58323e-11
8.24185e-11
7.90092e-11
7.55767e-11
7.21837e-11
6.87375e-11
6.52607e-11
6.16602e-11
5.81516e-11
5.47426e-11
5.09455e-11
4.83117e-11
4.53062e-11
4.0107e-11
2.80751e-11
3.23285e-14
1.19154e-13
2.32193e-13
3.80576e-13
5.76109e-13
8.61219e-13
1.32217e-12
2.15157e-12
3.6987e-12
6.50428e-12
1.10768e-11
1.73337e-11
2.49128e-11
3.61648e-11
4.7707e-11
5.87443e-11
6.88265e-11
7.74474e-11
8.46558e-11
8.99695e-11
9.40049e-11
9.61929e-11
9.70924e-11
9.66386e-11
9.46852e-11
9.16523e-11
8.83378e-11
8.45327e-11
8.25146e-11
8.09856e-11
7.93126e-11
7.75268e-11
7.55638e-11
7.34524e-11
7.11159e-11
6.87197e-11
6.61892e-11
6.35568e-11
6.08747e-11
5.81558e-11
5.53997e-11
5.26309e-11
4.97761e-11
4.7017e-11
4.42263e-11
4.13156e-11
3.92487e-11
3.62793e-11
3.20158e-11
2.22877e-11
2.17581e-14
7.69929e-14
1.44878e-13
2.26909e-13
3.26774e-13
4.50613e-13
6.0119e-13
8.09423e-13
1.1094e-12
1.57191e-12
2.28861e-12
3.34242e-12
4.94162e-12
7.2311e-12
1.02542e-11
1.39492e-11
1.81577e-11
2.26877e-11
2.73294e-11
3.18292e-11
3.60787e-11
3.99377e-11
4.3367e-11
4.58058e-11
4.8001e-11
4.96337e-11
5.06656e-11
5.13448e-11
5.18581e-11
5.21096e-11
5.21504e-11
5.19559e-11
5.14687e-11
5.07229e-11
4.97078e-11
4.85169e-11
4.71056e-11
4.55753e-11
4.39174e-11
4.21237e-11
4.02692e-11
3.83279e-11
3.6311e-11
3.42945e-11
3.23981e-11
3.05232e-11
2.9051e-11
2.69883e-11
2.40132e-11
1.674e-11
1.49693e-14
5.15115e-14
9.49774e-14
1.45488e-13
2.03598e-13
2.70579e-13
3.48781e-13
4.39727e-13
5.45438e-13
6.79635e-13
8.29081e-13
1.01409e-12
1.26972e-12
1.62978e-12
2.14363e-12
2.86661e-12
3.86044e-12
5.17762e-12
6.82056e-12
8.7547e-12
1.08511e-11
1.29668e-11
1.50618e-11
1.71008e-11
1.90325e-11
2.08103e-11
2.24244e-11
2.38763e-11
2.51402e-11
2.61906e-11
2.70732e-11
2.77311e-11
2.82072e-11
2.84585e-11
2.85245e-11
2.8402e-11
2.80638e-11
2.75692e-11
2.69178e-11
2.61367e-11
2.52866e-11
2.43185e-11
2.33177e-11
2.2283e-11
2.13413e-11
2.04149e-11
1.95733e-11
1.84279e-11
1.66022e-11
1.1558e-11
1.03548e-14
3.5005e-14
6.3779e-14
9.65978e-14
1.33442e-13
1.74453e-13
2.20013e-13
2.70838e-13
3.28072e-13
3.87643e-13
4.38341e-13
4.94518e-13
5.58476e-13
6.339e-13
7.28744e-13
8.4716e-13
1.00952e-12
1.22165e-12
1.49555e-12
1.84241e-12
2.28011e-12
2.81997e-12
3.45763e-12
4.18827e-12
4.9986e-12
5.86984e-12
6.78472e-12
7.71717e-12
8.57748e-12
9.40045e-12
1.02378e-11
1.10029e-11
1.16575e-11
1.22058e-11
1.26439e-11
1.29662e-11
1.32005e-11
1.33374e-11
1.33667e-11
1.33053e-11
1.31878e-11
1.29973e-11
1.2795e-11
1.25597e-11
1.23408e-11
1.21079e-11
1.19501e-11
1.15536e-11
1.0439e-11
7.1625e-12
7.11579e-15
2.38113e-14
4.31215e-14
6.49881e-14
8.93322e-14
1.16092e-13
1.45256e-13
1.76884e-13
2.09405e-13
2.37656e-13
2.65566e-13
2.93007e-13
3.18766e-13
3.43866e-13
3.70036e-13
3.97645e-13
4.2733e-13
4.65276e-13
5.09119e-13
5.58486e-13
6.23974e-13
6.99548e-13
7.97244e-13
9.11949e-13
1.06083e-12
1.24136e-12
1.45493e-12
1.70628e-12
1.9906e-12
2.30489e-12
2.64133e-12
3.00025e-12
3.36224e-12
3.71956e-12
4.0886e-12
4.43247e-12
4.73649e-12
4.9999e-12
5.2279e-12
5.43414e-12
5.6139e-12
5.76736e-12
5.91834e-12
6.06306e-12
6.21959e-12
6.37143e-12
6.55674e-12
6.50902e-12
5.82236e-12
3.78724e-12
4.79857e-15
1.59918e-14
2.89221e-14
4.35783e-14
5.99163e-14
7.78671e-14
9.73565e-14
1.16012e-13
1.33889e-13
1.51192e-13
1.67609e-13
1.82854e-13
1.96716e-13
2.09011e-13
2.19595e-13
2.2818e-13
2.35774e-13
2.42961e-13
2.48835e-13
2.53388e-13
2.56376e-13
2.61354e-13
2.66324e-13
2.70439e-13
2.77036e-13
2.88676e-13
3.01186e-13
3.26428e-13
3.62983e-13
4.33151e-13
5.10639e-13
6.12106e-13
7.21287e-13
8.51572e-13
9.8786e-13
1.14091e-12
1.29489e-12
1.47288e-12
1.64881e-12
1.82758e-12
2.01383e-12
2.21113e-12
2.41542e-12
2.62452e-12
2.83687e-12
3.04744e-12
3.22784e-12
3.17281e-12
2.78267e-12
1.64062e-12
3.11989e-15
1.04226e-14
1.89228e-14
2.86465e-14
3.9223e-14
5.03526e-14
6.18957e-14
7.35679e-14
8.5064e-14
9.60834e-14
1.06341e-13
1.15558e-13
1.23489e-13
1.2991e-13
1.34619e-13
1.37722e-13
1.39751e-13
1.39803e-13
1.37708e-13
1.33744e-13
1.27474e-13
1.18665e-13
1.07139e-13
9.27552e-14
7.5786e-14
8.04252e-14
8.69689e-14
9.41903e-14
1.02611e-13
1.16823e-13
1.34732e-13
1.5623e-13
1.87032e-13
2.22214e-13
2.6543e-13
3.17361e-13
3.74097e-13
4.44169e-13
5.20451e-13
6.00443e-13
6.91525e-13
7.87764e-13
8.86026e-13
1.02474e-12
1.17118e-12
1.30138e-12
1.3618e-12
1.32047e-12
1.09016e-12
5.44696e-13
1.82063e-15
6.14637e-15
1.12208e-14
1.7012e-14
2.34289e-14
3.03316e-14
3.75435e-14
4.48611e-14
5.2066e-14
5.89297e-14
6.52306e-14
7.07503e-14
7.52707e-14
7.85925e-14
8.08714e-14
8.20223e-14
8.16103e-14
7.946e-14
7.53798e-14
6.91633e-14
6.05541e-14
4.92832e-14
3.50648e-14
3.4578e-14
3.43719e-14
3.38935e-14
3.33526e-14
3.30016e-14
3.31705e-14
3.52506e-14
3.97219e-14
4.6232e-14
5.497e-14
6.7335e-14
8.33938e-14
1.02294e-13
1.24036e-13
1.5079e-13
1.8117e-13
2.13916e-13
2.4876e-13
2.84409e-13
3.18892e-13
3.56358e-13
4.27461e-13
4.77582e-13
5.01878e-13
4.59015e-13
3.23975e-13
1.53538e-13
8.75436e-16
3.10531e-15
5.85298e-15
9.08525e-15
1.27304e-14
1.66875e-14
2.08383e-14
2.50487e-14
2.91719e-14
3.30543e-14
3.65366e-14
3.94646e-14
4.18484e-14
4.35646e-14
4.43513e-14
4.40662e-14
4.25601e-14
3.96648e-14
3.51937e-14
2.8941e-14
2.06978e-14
1.81711e-14
1.70927e-14
1.56902e-14
1.3998e-14
1.20906e-14
1.02053e-14
8.76316e-15
7.61686e-15
7.13777e-15
7.76789e-15
9.7086e-15
1.29959e-14
1.80238e-14
2.49241e-14
3.3445e-14
4.34755e-14
5.47711e-14
6.70073e-14
7.97373e-14
9.24262e-14
1.03789e-13
1.12573e-13
1.16863e-13
1.39749e-13
1.59743e-13
1.55229e-13
1.25907e-13
7.96815e-14
3.72545e-14
2.48579e-16
1.09008e-15
2.30966e-15
3.78148e-15
5.44341e-15
7.23405e-15
9.09862e-15
1.09651e-14
1.27998e-14
1.4517e-14
1.60064e-14
1.71722e-14
1.7915e-14
1.81361e-14
1.77308e-14
1.6577e-14
1.45344e-14
1.14599e-14
9.00039e-15
8.58504e-15
7.9328e-15
7.06158e-15
5.89982e-15
4.49086e-15
2.87833e-15
1.03845e-15
1.02926e-16
1.08857e-16
1.17961e-16
1.30927e-16
1.51336e-16
1.95916e-16
2.45748e-16
3.0003e-16
3.48509e-15
7.63595e-15
1.24716e-14
1.77788e-14
2.30996e-14
2.78251e-14
3.19184e-14
3.47396e-14
3.61534e-14
3.47431e-14
3.21886e-14
3.64742e-14
3.21251e-14
2.3376e-14
1.34692e-14
6.06645e-15
8.04638e-18
1.43228e-16
3.15365e-16
4.47954e-16
5.50698e-16
6.01071e-16
5.89989e-16
6.57734e-16
7.79652e-16
8.91622e-16
9.8525e-16
1.05147e-15
1.08136e-15
1.06868e-15
1.01021e-15
8.86322e-16
6.77577e-16
3.71586e-16
2.24514e-17
2.22738e-17
2.17478e-17
2.08633e-17
1.96545e-17
1.82394e-17
1.67975e-17
1.5569e-17
1.48904e-17
1.5064e-17
1.62435e-17
1.85866e-17
2.22328e-17
2.70897e-17
3.29514e-17
3.9605e-17
4.6745e-17
5.39474e-17
6.07061e-17
6.64684e-17
7.05897e-17
7.24873e-17
7.17523e-17
1.17456e-15
2.14078e-15
2.58858e-15
2.57587e-15
2.21258e-15
1.61628e-15
1.04034e-15
5.45785e-16
3.14211e-16
)
;

boundaryField
{
    AXIS
    {
        type            empty;
    }
    OUTLET
    {
        type            calculated;
        value           nonuniform List<scalar> 
25
(
6.31629e-11
6.28019e-11
6.20118e-11
6.07843e-11
5.91536e-11
5.71761e-11
5.50003e-11
5.24048e-11
4.93638e-11
4.61951e-11
4.2587e-11
3.83185e-11
3.33073e-11
2.80751e-11
2.22877e-11
1.674e-11
1.1558e-11
7.1625e-12
3.78724e-12
1.64062e-12
5.44696e-13
1.53538e-13
3.72545e-14
6.06645e-15
3.14211e-16
)
;
    }
    COFLOW
    {
        type            calculated;
        value           uniform 0;
    }
    PILOT
    {
        type            calculated;
        value           uniform 1.74012e-18;
    }
    FUEL
    {
        type            calculated;
        value           uniform 0;
    }
    WALL
    {
        type            calculated;
        value           nonuniform List<scalar> 
50
(
8.04638e-18
1.43228e-16
3.15365e-16
4.47954e-16
5.50698e-16
6.01071e-16
5.89989e-16
6.57734e-16
7.79652e-16
8.91622e-16
9.8525e-16
1.05147e-15
1.08136e-15
1.06868e-15
1.01021e-15
8.86322e-16
6.77577e-16
3.71586e-16
2.24514e-17
2.22738e-17
2.17478e-17
2.08633e-17
1.96545e-17
1.82394e-17
1.67975e-17
1.5569e-17
1.48904e-17
1.5064e-17
1.62435e-17
1.85866e-17
2.22328e-17
2.70897e-17
3.29514e-17
3.9605e-17
4.6745e-17
5.39474e-17
6.07061e-17
6.64684e-17
7.05897e-17
7.24873e-17
7.17523e-17
1.17456e-15
2.14078e-15
2.58858e-15
2.57587e-15
2.21258e-15
1.61628e-15
1.04034e-15
5.45785e-16
3.14211e-16
)
;
    }
    front
    {
        type            wedge;
    }
    back
    {
        type            wedge;
    }
}


// ************************************************************************* //
