/*--------------------------------*- C++ -*----------------------------------*\
| =========                 |                                                 |
| \\      /  F ield         | OpenFOAM: The Open Source CFD Toolbox           |
|  \\    /   O peration     | Version:  2.4.x                                 |
|   \\  /    A nd           | Web:      www.OpenFOAM.org                      |
|    \\/     M anipulation  |                                                 |
\*---------------------------------------------------------------------------*/
FoamFile
{
    version     2.0;
    format      ascii;
    class       volScalarField;
    location    "0.1";
    object      H2O;
}
// * * * * * * * * * * * * * * * * * * * * * * * * * * * * * * * * * * * * * //

dimensions      [0 0 0 0 0 0 0];

internalField   nonuniform List<scalar> 
1250
(
0.000985418
0.00360702
0.00637787
0.00902749
0.011613
0.0141032
0.0165099
0.0188405
0.0212366
0.0241846
0.0272046
0.0302343
0.0333645
0.0365743
0.0397883
0.0430988
0.0463421
0.0494422
0.0525315
0.0556377
0.0587455
0.0618651
0.0649697
0.0677531
0.0708056
0.074007
0.0771295
0.0801316
0.0830402
0.0858107
0.0884714
0.0910052
0.0933576
0.0954449
0.0973993
0.0992054
0.100871
0.102416
0.103826
0.105119
0.106307
0.10739
0.108372
0.109269
0.110045
0.110805
0.11139
0.111572
0.111279
0.108929
0.00114953
0.00407372
0.00695378
0.00966558
0.0122604
0.0147167
0.0170559
0.019306
0.0220634
0.0250326
0.0280503
0.0310702
0.0342039
0.0373746
0.040582
0.0438808
0.04709
0.0501543
0.0532286
0.0563073
0.0593993
0.0624953
0.0655716
0.0683262
0.0711621
0.0743502
0.0774423
0.08043
0.0833094
0.0860608
0.0886997
0.0912098
0.0935605
0.095629
0.097562
0.0993484
0.100998
0.102524
0.103918
0.105195
0.106371
0.107438
0.10841
0.109293
0.110059
0.110808
0.111382
0.111549
0.111215
0.108772
0.00166831
0.00539021
0.00850743
0.0113026
0.0138194
0.0160593
0.0183818
0.0211387
0.0240136
0.0269738
0.029978
0.0329763
0.0360519
0.0391668
0.0423696
0.0456164
0.0487367
0.05174
0.0547589
0.05779
0.0608353
0.0638701
0.066883
0.0695612
0.0721122
0.0750999
0.0781384
0.0810897
0.0839106
0.0866232
0.0892147
0.0916741
0.0940005
0.0960467
0.0979266
0.0996671
0.101281
0.102761
0.104123
0.105365
0.106516
0.107549
0.108496
0.109347
0.110094
0.110815
0.11135
0.111479
0.111041
0.108422
0.00325749
0.00838637
0.0116748
0.0140919
0.0163417
0.0189469
0.0215941
0.0242937
0.0271253
0.0300558
0.0329829
0.0358837
0.0388799
0.0419502
0.0450712
0.0482198
0.051212
0.0541222
0.0570655
0.0600207
0.0629672
0.0659037
0.06879
0.0713676
0.073808
0.0761919
0.0791722
0.0820405
0.0848014
0.0874463
0.089958
0.0923389
0.0946046
0.0966477
0.0984571
0.10014
0.101689
0.103112
0.104421
0.105618
0.106721
0.107708
0.108609
0.109416
0.110126
0.110799
0.111291
0.111368
0.110775
0.107852
0.00963912
0.0157409
0.0171229
0.0193043
0.0214599
0.0236489
0.0260399
0.0286033
0.0313396
0.0341967
0.0369564
0.0397559
0.0426196
0.0455303
0.048527
0.0516051
0.0544248
0.0572372
0.0600531
0.0628779
0.0656787
0.0684569
0.0711997
0.0736472
0.0759543
0.0781997
0.0804893
0.0832805
0.0859436
0.0884807
0.0908993
0.0932003
0.0953667
0.0974023
0.0991437
0.100736
0.102204
0.103555
0.104798
0.105933
0.106968
0.107895
0.108736
0.10949
0.110148
0.110758
0.111169
0.111199
0.110378
0.107049
0.0463373
0.0298699
0.0273296
0.0277303
0.0290584
0.0307717
0.0328224
0.0351511
0.0375462
0.039943
0.0421683
0.0445235
0.0469628
0.0497819
0.0526891
0.0556193
0.0582538
0.0608988
0.0635551
0.0662094
0.0688234
0.0714138
0.07397
0.0762897
0.0784278
0.080533
0.0825781
0.0847354
0.0872867
0.0897242
0.092015
0.0941831
0.0962361
0.0981704
0.0999275
0.101426
0.102798
0.104066
0.105221
0.106271
0.107225
0.108077
0.108854
0.109535
0.110131
0.110655
0.110978
0.110913
0.109825
0.10597
0.0802498
0.0477671
0.0393235
0.0373144
0.0373294
0.0385381
0.0402241
0.042205
0.0443888
0.0464802
0.0484817
0.0505917
0.0527591
0.0549787
0.0572918
0.0600024
0.0624582
0.0649203
0.0673839
0.0698367
0.0722238
0.0746051
0.076981
0.0791618
0.0811169
0.0830448
0.084929
0.0867646
0.0887827
0.0910643
0.0932232
0.095264
0.097185
0.0989917
0.100675
0.102152
0.103424
0.104586
0.105647
0.106598
0.107464
0.108234
0.108926
0.109525
0.110037
0.11046
0.110666
0.110501
0.109096
0.10461
0.0922377
0.0562466
0.046398
0.0443509
0.0441769
0.0454501
0.0471764
0.0491167
0.0511993
0.0530184
0.0548049
0.0566688
0.0585924
0.0605306
0.0624873
0.0643608
0.0666246
0.0689025
0.0711776
0.0734309
0.0756612
0.077864
0.0800406
0.0821011
0.0838826
0.0856127
0.0873089
0.088962
0.0905719
0.0924692
0.0944687
0.0963524
0.0981314
0.0998068
0.101359
0.102806
0.104019
0.105061
0.106006
0.106861
0.107631
0.108313
0.108914
0.109409
0.109834
0.110119
0.11022
0.109897
0.108144
0.102892
0.0880453
0.0524092
0.045368
0.0460607
0.0479815
0.0499207
0.0523049
0.0546071
0.0568315
0.0586227
0.0603808
0.0621433
0.0639162
0.0656764
0.0674443
0.0690688
0.0707388
0.0728463
0.074945
0.0770126
0.0790324
0.0810265
0.0829956
0.084913
0.0865103
0.0880547
0.0895707
0.0910312
0.092467
0.0938546
0.0956619
0.097395
0.0990143
0.100538
0.101943
0.103252
0.104467
0.105433
0.106268
0.10702
0.10769
0.108257
0.108744
0.109126
0.109439
0.109596
0.109546
0.109071
0.106919
0.100797
0.0582154
0.0355899
0.0348985
0.0412308
0.0464753
0.050779
0.0543501
0.0575898
0.0604719
0.0630829
0.0654286
0.0675717
0.0695966
0.0714776
0.0732232
0.0743414
0.0754497
0.0771591
0.0789654
0.0807292
0.0824566
0.0841476
0.0857844
0.0873758
0.0888129
0.0901931
0.0915441
0.0928348
0.0940972
0.0953186
0.0966941
0.0982607
0.0997305
0.101099
0.102376
0.103544
0.104626
0.105605
0.106356
0.106992
0.107546
0.107997
0.108368
0.108648
0.10884
0.108842
0.108667
0.107982
0.105413
0.0984059
0.00883707
0.0155696
0.0213831
0.0303847
0.039336
0.0465001
0.0522509
0.0570558
0.0606376
0.063867
0.0670474
0.0699573
0.0725113
0.074844
0.0769038
0.0780618
0.0791527
0.0806668
0.082209
0.0837085
0.0851721
0.0866086
0.0880006
0.0893634
0.0906586
0.0918912
0.0930754
0.0942255
0.0953448
0.0964205
0.0974822
0.0989004
0.100208
0.101439
0.102563
0.103602
0.104538
0.105394
0.106126
0.106689
0.107133
0.107468
0.107713
0.107871
0.107945
0.107771
0.107431
0.106535
0.103429
0.0956841
0.00239417
0.00674483
0.0111485
0.0179905
0.0270492
0.0363603
0.0447418
0.0513099
0.0567996
0.0613742
0.0650471
0.0683309
0.07117
0.07369
0.0758186
0.0778754
0.0799994
0.0819616
0.0836333
0.0851941
0.0866503
0.0880402
0.0893653
0.0906359
0.0918324
0.0929467
0.0940172
0.0950474
0.0960391
0.0969975
0.0979254
0.0991324
0.100293
0.101376
0.102364
0.10326
0.104076
0.104774
0.105391
0.105897
0.106283
0.106514
0.10662
0.106637
0.106563
0.106216
0.105705
0.10454
0.10087
0.0924239
0.000938823
0.00324779
0.00575691
0.00949198
0.0151237
0.0225681
0.0313397
0.0398896
0.0472878
0.053443
0.0586348
0.0632598
0.0671495
0.0705175
0.0734245
0.0760228
0.0783608
0.0804852
0.0824406
0.0842707
0.0859657
0.0875586
0.0890527
0.0904802
0.0917603
0.0928373
0.0938637
0.0948429
0.0957759
0.096669
0.0975342
0.0986629
0.099706
0.100657
0.101511
0.102286
0.102965
0.103533
0.104019
0.104386
0.104668
0.10482
0.104837
0.104707
0.104459
0.103931
0.10327
0.101703
0.0975327
0.0883657
0.000485551
0.00175271
0.00328844
0.00524037
0.00807113
0.0120752
0.0175375
0.0243746
0.0318972
0.0397142
0.0467901
0.0530217
0.0583987
0.0629324
0.0669271
0.0704649
0.0735218
0.0762991
0.0787643
0.0810146
0.0830529
0.0849102
0.0866309
0.0882465
0.0896482
0.090837
0.0919365
0.0929682
0.0939441
0.0948631
0.0959482
0.0970031
0.0979639
0.0988373
0.0995949
0.100266
0.100836
0.10131
0.101666
0.101922
0.102071
0.10209
0.101979
0.101738
0.10135
0.100649
0.0997497
0.0977648
0.0931872
0.0832636
0.000298881
0.00107047
0.00201259
0.00321544
0.00472242
0.00672127
0.00937512
0.0129323
0.01757
0.0232523
0.0296961
0.0362824
0.0424901
0.0484507
0.053787
0.0585313
0.0627293
0.0664823
0.0698716
0.0730229
0.0758048
0.0783066
0.0805696
0.0826303
0.0843358
0.0858442
0.0872404
0.0885442
0.0899033
0.0912145
0.0924248
0.0935108
0.0944777
0.095338
0.0960641
0.0967053
0.0972213
0.0976258
0.0979071
0.0980587
0.0981066
0.0980253
0.0977917
0.0974359
0.0968935
0.0960276
0.0949392
0.0925231
0.0875784
0.0770777
0.000202565
0.000710838
0.00132661
0.0020765
0.00301137
0.00419063
0.00555915
0.00735413
0.00959085
0.0124308
0.0159471
0.0201936
0.0251481
0.0305724
0.0361326
0.0415371
0.0466269
0.0513714
0.0556776
0.0596296
0.0632042
0.066484
0.0694908
0.0721861
0.0746289
0.0769318
0.0790963
0.0810733
0.082871
0.0845097
0.0859555
0.087257
0.0883961
0.0893699
0.0901915
0.0908849
0.0914175
0.0918426
0.0921363
0.092279
0.0923159
0.0921919
0.0919018
0.0914622
0.0908264
0.0898333
0.088539
0.0856443
0.0804938
0.0696189
0.000144344
0.000496614
0.000918348
0.00141935
0.00201762
0.0027395
0.00362076
0.00466469
0.00584373
0.0073071
0.00906094
0.0110922
0.013586
0.0165609
0.0200303
0.0239865
0.0283247
0.0329038
0.0375476
0.0420904
0.0464373
0.0504778
0.0542737
0.057792
0.0610374
0.0640281
0.0667818
0.0693299
0.0716797
0.0737837
0.0756643
0.0773571
0.0788096
0.0800814
0.0811521
0.0820497
0.0827741
0.0833507
0.0837593
0.0840169
0.0841568
0.0840935
0.0838748
0.0834738
0.0828261
0.0817919
0.0803088
0.0771224
0.0719932
0.0606248
0.000105091
0.000356227
0.000653495
0.00100171
0.00140833
0.0018838
0.00244175
0.00309939
0.00387824
0.00477861
0.00570393
0.00679765
0.0080946
0.00960321
0.0113052
0.0133163
0.0156182
0.0182799
0.0212732
0.0245709
0.0281221
0.0318576
0.0356802
0.0394909
0.0431833
0.0467588
0.0501776
0.0534123
0.0564347
0.0591598
0.0615942
0.0637715
0.0656998
0.0673804
0.0688294
0.070084
0.0711292
0.0719972
0.0726992
0.0732253
0.0735956
0.0737372
0.0737122
0.0734754
0.07292
0.0719189
0.0702828
0.0670899
0.061793
0.049951
7.66847e-05
0.000257505
0.000469927
0.000716957
0.00100242
0.00133116
0.00170918
0.00214355
0.00263951
0.00319686
0.00383473
0.00456536
0.00533785
0.00616474
0.00711122
0.00819268
0.00942931
0.0107635
0.012276
0.0140182
0.0159722
0.0181924
0.0206596
0.0233872
0.0262839
0.0293463
0.0324998
0.0356617
0.0387684
0.0417284
0.0444835
0.0470056
0.049331
0.051457
0.0533879
0.0551341
0.0566751
0.0580172
0.0591861
0.0601105
0.0608485
0.0613566
0.0616446
0.0615753
0.0611827
0.0603196
0.0586077
0.0553651
0.049736
0.0379044
5.51793e-05
0.000184538
0.00033623
0.000512461
0.000715669
0.000948531
0.00121409
0.00151119
0.0018438
0.00221677
0.00263432
0.00310129
0.00362358
0.00420775
0.00486138
0.0055375
0.00622728
0.0069807
0.00782858
0.00878467
0.00986171
0.0110426
0.0123783
0.0139003
0.0156094
0.0175049
0.0195917
0.021827
0.0242172
0.0266353
0.0290658
0.0314049
0.0337007
0.0358817
0.0379769
0.0399232
0.0417529
0.0433647
0.0448309
0.0460905
0.0471446
0.0479288
0.048436
0.0485312
0.0481884
0.0473748
0.0455852
0.0421438
0.036273
0.0252006
3.83916e-05
0.000128688
0.000235272
0.000359972
0.000503827
0.000668027
0.000854106
0.00106342
0.00129735
0.00155741
0.00184542
0.00216326
0.00251329
0.00289822
0.00332118
0.003781
0.00426959
0.00480583
0.00539684
0.00596516
0.00659427
0.00729955
0.00809541
0.00899774
0.0100236
0.0111708
0.0124399
0.0138539
0.0154163
0.0170884
0.0188453
0.0206574
0.022466
0.0242889
0.0260813
0.0278081
0.0294659
0.0309644
0.0323383
0.0335385
0.0345345
0.0352846
0.0357393
0.0357101
0.0352641
0.0342095
0.0320084
0.0280862
0.0223353
0.0135851
2.48268e-05
8.43615e-05
0.000156019
0.000241203
0.000340988
0.000456224
0.000587618
0.00073581
0.000901438
0.00108507
0.00128756
0.00150979
0.00175257
0.0020171
0.00229852
0.00259695
0.00291963
0.00326956
0.0036508
0.00406884
0.00452991
0.00504273
0.00561927
0.00618449
0.00683219
0.00758278
0.00843959
0.00940653
0.0104843
0.0116563
0.0129
0.0141949
0.0155185
0.0168274
0.0181036
0.0193361
0.0204996
0.0215437
0.0224626
0.0232114
0.0237782
0.0241002
0.0240792
0.0237636
0.0229594
0.0213804
0.0187195
0.0151001
0.0105981
0.00569936
1.37195e-05
4.90977e-05
9.41261e-05
0.000149708
0.000216461
0.000294794
0.000385103
0.000487706
0.000602837
0.000730777
0.000871856
0.00102657
0.00119215
0.00136826
0.00155727
0.00175992
0.00197747
0.00221167
0.00246508
0.00274088
0.00304306
0.00337032
0.00373608
0.00415435
0.0046387
0.00520388
0.00585226
0.00652455
0.00727647
0.00810247
0.00898498
0.00989464
0.0108048
0.0116767
0.0124895
0.0132302
0.013874
0.0143965
0.0147764
0.014971
0.0149505
0.0147677
0.014315
0.0134753
0.0122514
0.0106071
0.00846602
0.00614545
0.00366026
0.00170454
4.68769e-06
2.08842e-05
4.58805e-05
7.85621e-05
0.000119086
0.000167727
0.000224989
0.000291056
0.000365167
0.000447503
0.000538489
0.000638199
0.000746691
0.000863868
0.000989322
0.00112295
0.00126533
0.00141748
0.00157935
0.00175208
0.00194047
0.00214844
0.00238345
0.00265419
0.00297067
0.00334474
0.00378553
0.00428859
0.00484097
0.00543308
0.0060422
0.00660785
0.00714799
0.00764103
0.00807461
0.00841702
0.00864605
0.00874139
0.00870933
0.00857367
0.00822207
0.00767369
0.00695468
0.00609557
0.00503693
0.00383849
0.00264468
0.00164244
0.000880012
0.000381854
1.96746e-07
4.00988e-06
1.15743e-05
2.33531e-05
3.95695e-05
6.04806e-05
8.63659e-05
0.000117412
0.000153922
0.000196137
0.000244144
0.000297922
0.000357271
0.000421626
0.000489323
0.000561128
0.000637072
0.000717017
0.000801887
0.000896316
0.00100102
0.00111859
0.00125254
0.00140656
0.00158383
0.0017862
0.00201283
0.00225932
0.00251903
0.00278281
0.00304011
0.00327563
0.00347266
0.00361671
0.00369522
0.00369849
0.00362106
0.00346332
0.00322634
0.0029248
0.00256629
0.00217908
0.00177638
0.00138453
0.00102369
0.000711039
0.000454573
0.000269697
0.000148617
5.75819e-05
)
;

boundaryField
{
    AXIS
    {
        type            empty;
    }
    OUTLET
    {
        type            calculated;
        value           nonuniform List<scalar> 
25
(
0.108929
0.108772
0.108422
0.107852
0.107049
0.10597
0.10461
0.102892
0.100797
0.0984059
0.0956841
0.0924239
0.0883657
0.0832636
0.0770777
0.0696189
0.0606248
0.049951
0.0379044
0.0252006
0.0135851
0.00569936
0.00170454
0.000381854
5.75819e-05
)
;
    }
    COFLOW
    {
        type            calculated;
        value           uniform 0;
    }
    PILOT
    {
        type            calculated;
        value           uniform 0.113267;
    }
    FUEL
    {
        type            calculated;
        value           uniform 0;
    }
    WALL
    {
        type            calculated;
        value           nonuniform List<scalar> 
50
(
1.96746e-07
4.00988e-06
1.15743e-05
2.33531e-05
3.95695e-05
6.04806e-05
8.63659e-05
0.000117412
0.000153922
0.000196137
0.000244144
0.000297922
0.000357271
0.000421626
0.000489323
0.000561128
0.000637072
0.000717017
0.000801887
0.000896316
0.00100102
0.00111859
0.00125254
0.00140656
0.00158383
0.0017862
0.00201283
0.00225932
0.00251903
0.00278281
0.00304011
0.00327563
0.00347266
0.00361671
0.00369522
0.00369849
0.00362106
0.00346332
0.00322634
0.0029248
0.00256629
0.00217908
0.00177638
0.00138453
0.00102369
0.000711039
0.000454573
0.000269697
0.000148617
5.75819e-05
)
;
    }
    front
    {
        type            wedge;
    }
    back
    {
        type            wedge;
    }
}


// ************************************************************************* //
