/*--------------------------------*- C++ -*----------------------------------*\
| =========                 |                                                 |
| \\      /  F ield         | OpenFOAM: The Open Source CFD Toolbox           |
|  \\    /   O peration     | Version:  2.4.x                                 |
|   \\  /    A nd           | Web:      www.OpenFOAM.org                      |
|    \\/     M anipulation  |                                                 |
\*---------------------------------------------------------------------------*/
FoamFile
{
    version     2.0;
    format      ascii;
    class       volScalarField;
    location    "0.1";
    object      H2O2;
}
// * * * * * * * * * * * * * * * * * * * * * * * * * * * * * * * * * * * * * //

dimensions      [0 0 0 0 0 0 0];

internalField   nonuniform List<scalar> 
1250
(
1.21862e-07
4.20721e-07
6.76865e-07
8.57975e-07
9.6256e-07
9.7869e-07
9.04349e-07
7.46917e-07
5.7602e-07
6.3194e-07
6.90919e-07
7.59708e-07
8.2904e-07
8.99877e-07
9.67416e-07
1.03744e-06
1.11146e-06
1.18867e-06
1.25829e-06
1.32215e-06
1.37786e-06
1.42521e-06
1.46204e-06
1.4833e-06
1.58835e-06
1.71081e-06
1.781e-06
1.80503e-06
1.78486e-06
1.73143e-06
1.64528e-06
1.53794e-06
1.40577e-06
1.26026e-06
1.11578e-06
9.76481e-07
8.46336e-07
7.25018e-07
6.17826e-07
5.21035e-07
4.38387e-07
3.65511e-07
3.03898e-07
2.53945e-07
2.13712e-07
1.77265e-07
1.53502e-07
1.46052e-07
1.46478e-07
1.34217e-07
1.45845e-07
4.74358e-07
7.24051e-07
8.83124e-07
9.47662e-07
9.12377e-07
7.79625e-07
5.71396e-07
5.79442e-07
6.33382e-07
6.90876e-07
7.57176e-07
8.25982e-07
8.93968e-07
9.60762e-07
1.03075e-06
1.10442e-06
1.17918e-06
1.24829e-06
1.31043e-06
1.36509e-06
1.41067e-06
1.44647e-06
1.46604e-06
1.52307e-06
1.64922e-06
1.72365e-06
1.75051e-06
1.73518e-06
1.68453e-06
1.60326e-06
1.49918e-06
1.37423e-06
1.23324e-06
1.09297e-06
9.57726e-07
8.30808e-07
7.13065e-07
6.08451e-07
5.14412e-07
4.33438e-07
3.62443e-07
3.01916e-07
2.53354e-07
2.13485e-07
1.77325e-07
1.53741e-07
1.46476e-07
1.46939e-07
1.34984e-07
2.23581e-07
6.23068e-07
8.33699e-07
9.0497e-07
8.36432e-07
6.46637e-07
4.86917e-07
5.33592e-07
5.8146e-07
6.29139e-07
6.84807e-07
7.47732e-07
8.12458e-07
8.77101e-07
9.45283e-07
1.01392e-06
1.08627e-06
1.15813e-06
1.22454e-06
1.28409e-06
1.33583e-06
1.37837e-06
1.4118e-06
1.42761e-06
1.42775e-06
1.52222e-06
1.60397e-06
1.63782e-06
1.63061e-06
1.58623e-06
1.51401e-06
1.41673e-06
1.30451e-06
1.17413e-06
1.04295e-06
9.16522e-07
7.96535e-07
6.86946e-07
5.873e-07
4.99609e-07
4.2146e-07
3.54564e-07
2.9651e-07
2.51163e-07
2.12143e-07
1.76812e-07
1.54618e-07
1.4774e-07
1.48606e-07
1.36595e-07
4.69177e-07
9.15088e-07
9.19277e-07
6.61874e-07
4.23381e-07
4.54713e-07
4.87562e-07
5.21568e-07
5.61627e-07
6.04859e-07
6.58793e-07
7.17696e-07
7.81091e-07
8.46895e-07
9.14845e-07
9.82399e-07
1.05406e-06
1.12254e-06
1.18598e-06
1.24174e-06
1.28944e-06
1.32861e-06
1.3574e-06
1.36862e-06
1.36469e-06
1.34832e-06
1.43936e-06
1.48338e-06
1.48509e-06
1.4523e-06
1.38936e-06
1.30576e-06
1.20512e-06
1.09057e-06
9.72165e-07
8.56653e-07
7.48152e-07
6.47787e-07
5.57052e-07
4.76089e-07
4.03658e-07
3.41926e-07
2.89079e-07
2.4679e-07
2.09391e-07
1.76237e-07
1.55212e-07
1.48677e-07
1.50131e-07
1.39403e-07
1.39156e-06
1.16579e-06
4.33834e-07
4.08087e-07
4.02581e-07
4.07715e-07
4.29015e-07
4.56395e-07
4.95664e-07
5.41542e-07
5.98935e-07
6.61047e-07
7.27035e-07
7.9532e-07
8.64906e-07
9.33886e-07
1.00476e-06
1.071e-06
1.13043e-06
1.18245e-06
1.22538e-06
1.25923e-06
1.28343e-06
1.28994e-06
1.28211e-06
1.26303e-06
1.24932e-06
1.3035e-06
1.31629e-06
1.29467e-06
1.24567e-06
1.17463e-06
1.08699e-06
9.88569e-07
8.84157e-07
7.83481e-07
6.87551e-07
5.99119e-07
5.18384e-07
4.44964e-07
3.80459e-07
3.25473e-07
2.78933e-07
2.38986e-07
2.04257e-07
1.74282e-07
1.557e-07
1.48824e-07
1.51555e-07
1.43538e-07
1.14835e-06
4.65721e-07
4.74588e-07
4.99754e-07
5.21692e-07
5.38851e-07
5.52866e-07
5.68066e-07
5.84336e-07
6.02403e-07
6.22481e-07
6.42517e-07
6.62109e-07
7.28718e-07
8.01545e-07
8.72159e-07
9.42091e-07
1.00487e-06
1.06003e-06
1.10697e-06
1.14435e-06
1.17272e-06
1.19175e-06
1.19515e-06
1.18382e-06
1.16298e-06
1.13337e-06
1.11728e-06
1.13977e-06
1.12919e-06
1.09259e-06
1.03544e-06
9.62186e-07
8.77718e-07
7.87982e-07
7.00716e-07
6.19995e-07
5.42871e-07
4.725e-07
4.09052e-07
3.54151e-07
3.07084e-07
2.64226e-07
2.28057e-07
1.97408e-07
1.71323e-07
1.54962e-07
1.489e-07
1.52755e-07
1.49641e-07
8.28102e-07
9.02382e-07
8.85643e-07
8.47692e-07
8.10165e-07
7.79679e-07
7.50648e-07
7.31692e-07
7.21552e-07
7.15895e-07
7.12979e-07
7.1438e-07
7.18531e-07
7.2459e-07
7.38657e-07
8.08566e-07
8.73835e-07
9.31268e-07
9.80286e-07
1.02064e-06
1.05195e-06
1.07468e-06
1.08884e-06
1.08985e-06
1.07585e-06
1.0536e-06
1.02405e-06
9.88148e-07
9.70512e-07
9.69072e-07
9.43019e-07
8.97741e-07
8.3804e-07
7.67545e-07
6.92552e-07
6.17312e-07
5.47936e-07
4.83015e-07
4.23565e-07
3.72363e-07
3.25528e-07
2.83519e-07
2.46203e-07
2.1547e-07
1.8963e-07
1.67191e-07
1.53602e-07
1.48124e-07
1.53699e-07
1.57952e-07
3.84724e-07
1.19615e-06
1.30745e-06
1.2498e-06
1.15676e-06
1.07124e-06
9.92562e-07
9.32187e-07
8.88524e-07
8.46885e-07
8.14541e-07
7.92347e-07
7.77619e-07
7.68149e-07
7.62505e-07
7.59633e-07
8.13583e-07
8.61162e-07
9.0089e-07
9.32701e-07
9.56731e-07
9.72973e-07
9.81596e-07
9.80612e-07
9.64553e-07
9.41806e-07
9.13056e-07
8.79197e-07
8.40894e-07
8.2353e-07
8.05633e-07
7.71256e-07
7.23827e-07
6.66311e-07
6.03362e-07
5.3664e-07
4.76898e-07
4.25869e-07
3.78192e-07
3.33816e-07
2.93611e-07
2.58421e-07
2.27656e-07
2.02666e-07
1.80807e-07
1.62731e-07
1.51139e-07
1.47498e-07
1.55562e-07
1.71476e-07
2.82859e-07
1.03977e-06
1.33658e-06
1.45359e-06
1.4157e-06
1.33161e-06
1.23407e-06
1.14454e-06
1.06836e-06
9.85294e-07
9.22293e-07
8.75101e-07
8.39871e-07
8.13709e-07
7.94413e-07
7.77393e-07
7.74301e-07
8.06337e-07
8.32647e-07
8.53063e-07
8.67557e-07
8.75913e-07
8.78321e-07
8.74794e-07
8.56884e-07
8.34123e-07
8.06559e-07
7.75302e-07
7.40355e-07
7.02912e-07
6.87473e-07
6.60312e-07
6.22164e-07
5.75434e-07
5.25116e-07
4.71524e-07
4.16209e-07
3.70854e-07
3.31287e-07
2.95113e-07
2.62842e-07
2.35342e-07
2.10804e-07
1.90755e-07
1.73153e-07
1.58222e-07
1.49732e-07
1.47711e-07
1.59172e-07
1.96361e-07
3.82268e-07
5.43979e-07
8.54707e-07
1.21032e-06
1.39094e-06
1.42587e-06
1.38734e-06
1.31469e-06
1.22178e-06
1.11823e-06
1.03095e-06
9.64918e-07
9.18316e-07
8.82572e-07
8.537e-07
8.16937e-07
7.84303e-07
7.87708e-07
7.94224e-07
7.98278e-07
7.99262e-07
7.9649e-07
7.89973e-07
7.79414e-07
7.60765e-07
7.3765e-07
7.11094e-07
6.82085e-07
6.5056e-07
6.17323e-07
5.90561e-07
5.68381e-07
5.37405e-07
5.00026e-07
4.57707e-07
4.13328e-07
3.67597e-07
3.23078e-07
2.89983e-07
2.61938e-07
2.36775e-07
2.15384e-07
1.96083e-07
1.79842e-07
1.6604e-07
1.54931e-07
1.4896e-07
1.4973e-07
1.64691e-07
2.21466e-07
8.95436e-08
1.80001e-07
3.5051e-07
6.80901e-07
1.0238e-06
1.2468e-06
1.34685e-06
1.35961e-06
1.2943e-06
1.20529e-06
1.12974e-06
1.05658e-06
9.92795e-07
9.38562e-07
8.92328e-07
8.38433e-07
7.91328e-07
7.72498e-07
7.6105e-07
7.50614e-07
7.39966e-07
7.28139e-07
7.15007e-07
6.99904e-07
6.79313e-07
6.5497e-07
6.29022e-07
6.01518e-07
5.72632e-07
5.42929e-07
5.1283e-07
4.92337e-07
4.66088e-07
4.34571e-07
4.00477e-07
3.6448e-07
3.28499e-07
2.92551e-07
2.59294e-07
2.34528e-07
2.15051e-07
1.98532e-07
1.83929e-07
1.71795e-07
1.61613e-07
1.54591e-07
1.51471e-07
1.5435e-07
1.85389e-07
2.46813e-07
2.02255e-08
6.95836e-08
1.58241e-07
2.81049e-07
5.0386e-07
8.0063e-07
1.04363e-06
1.17243e-06
1.21567e-06
1.19823e-06
1.15711e-06
1.0984e-06
1.0417e-06
9.87411e-07
9.2908e-07
8.6958e-07
8.23266e-07
7.87905e-07
7.56426e-07
7.28448e-07
7.03059e-07
6.79226e-07
6.56425e-07
6.34059e-07
6.10107e-07
5.84512e-07
5.58612e-07
5.32414e-07
5.05944e-07
4.79262e-07
4.52298e-07
4.31802e-07
4.08704e-07
3.82572e-07
3.54742e-07
3.26135e-07
2.97058e-07
2.69479e-07
2.42802e-07
2.18484e-07
1.98625e-07
1.86497e-07
1.76701e-07
1.68677e-07
1.61936e-07
1.57947e-07
1.57555e-07
1.63699e-07
2.11179e-07
2.73627e-07
8.52242e-09
3.35624e-08
7.14725e-08
1.27577e-07
2.10987e-07
3.35906e-07
5.42834e-07
7.61269e-07
9.28159e-07
1.02452e-06
1.06494e-06
1.0653e-06
1.04449e-06
1.01267e-06
9.54673e-07
8.99189e-07
8.46788e-07
7.98906e-07
7.56216e-07
7.17269e-07
6.82146e-07
6.49923e-07
6.20372e-07
5.92413e-07
5.64798e-07
5.36639e-07
5.09507e-07
4.83213e-07
4.57591e-07
4.32698e-07
4.08578e-07
3.88509e-07
3.66829e-07
3.44395e-07
3.21504e-07
2.98372e-07
2.7588e-07
2.54921e-07
2.34942e-07
2.16941e-07
2.0053e-07
1.86759e-07
1.7696e-07
1.72282e-07
1.69086e-07
1.6819e-07
1.70152e-07
1.86952e-07
2.39483e-07
3.02362e-07
4.85475e-09
1.84125e-08
3.74568e-08
6.17681e-08
9.38948e-08
1.42031e-07
2.18128e-07
3.31053e-07
4.73815e-07
6.25784e-07
7.51004e-07
8.38378e-07
8.89509e-07
9.0342e-07
8.92725e-07
8.67335e-07
8.34413e-07
7.95243e-07
7.56323e-07
7.17312e-07
6.79493e-07
6.43721e-07
6.09851e-07
5.77529e-07
5.46684e-07
5.15962e-07
4.87135e-07
4.59974e-07
4.34219e-07
4.0989e-07
3.88102e-07
3.67097e-07
3.46433e-07
3.26189e-07
3.06719e-07
2.87878e-07
2.70052e-07
2.53337e-07
2.38359e-07
2.24946e-07
2.13381e-07
2.04161e-07
1.97066e-07
1.92353e-07
1.89662e-07
1.92009e-07
1.99633e-07
2.21757e-07
2.71063e-07
3.32048e-07
3.08725e-09
1.12573e-08
2.15651e-08
3.4529e-08
5.02245e-08
7.02968e-08
9.67685e-08
1.33917e-07
1.87548e-07
2.62369e-07
3.5759e-07
4.65533e-07
5.64643e-07
6.3986e-07
6.90724e-07
7.19229e-07
7.2963e-07
7.25466e-07
7.1162e-07
6.91546e-07
6.67225e-07
6.39469e-07
6.10892e-07
5.8146e-07
5.5021e-07
5.19529e-07
4.90567e-07
4.62966e-07
4.37053e-07
4.12674e-07
3.89761e-07
3.68421e-07
3.48457e-07
3.29783e-07
3.12579e-07
2.96461e-07
2.8188e-07
2.68647e-07
2.56994e-07
2.47092e-07
2.3858e-07
2.31911e-07
2.27423e-07
2.24776e-07
2.2445e-07
2.28592e-07
2.37773e-07
2.60911e-07
3.05355e-07
3.60386e-07
2.08145e-09
7.33115e-09
1.37066e-08
2.13054e-08
3.03952e-08
4.13215e-08
5.32696e-08
6.84592e-08
8.69717e-08
1.10926e-07
1.44772e-07
1.95442e-07
2.57471e-07
3.27096e-07
3.97189e-07
4.6048e-07
5.13023e-07
5.52683e-07
5.78131e-07
5.91859e-07
5.95104e-07
5.90005e-07
5.78675e-07
5.61556e-07
5.41224e-07
5.19111e-07
4.96365e-07
4.73114e-07
4.50084e-07
4.27568e-07
4.06389e-07
3.86444e-07
3.67931e-07
3.51057e-07
3.35632e-07
3.21606e-07
3.09267e-07
2.9813e-07
2.88479e-07
2.805e-07
2.73747e-07
2.68815e-07
2.65725e-07
2.64384e-07
2.65539e-07
2.70581e-07
2.7993e-07
3.02463e-07
3.39161e-07
3.81401e-07
1.44099e-09
4.94911e-09
9.10625e-09
1.39231e-08
1.94525e-08
2.58099e-08
3.31957e-08
4.14664e-08
5.01133e-08
6.05033e-08
7.62953e-08
9.61725e-08
1.2133e-07
1.52025e-07
1.88011e-07
2.29078e-07
2.73264e-07
3.17885e-07
3.60195e-07
3.97403e-07
4.29135e-07
4.54e-07
4.71248e-07
4.807e-07
4.83413e-07
4.80584e-07
4.73517e-07
4.63089e-07
4.50354e-07
4.36137e-07
4.21658e-07
4.07121e-07
3.93026e-07
3.79621e-07
3.67165e-07
3.55708e-07
3.45337e-07
3.36029e-07
3.27995e-07
3.21129e-07
3.15292e-07
3.11118e-07
3.08342e-07
3.07145e-07
3.08585e-07
3.13325e-07
3.21665e-07
3.4057e-07
3.66386e-07
3.86837e-07
1.0059e-09
3.3983e-09
6.19044e-09
9.37979e-09
1.29721e-08
1.699e-08
2.1479e-08
2.65152e-08
3.22124e-08
3.9279e-08
4.80006e-08
5.85037e-08
7.12141e-08
8.61074e-08
1.02412e-07
1.22076e-07
1.4367e-07
1.68773e-07
1.98633e-07
2.31302e-07
2.64595e-07
2.97097e-07
3.27532e-07
3.54275e-07
3.75948e-07
3.93094e-07
4.05544e-07
4.13204e-07
4.17116e-07
4.16891e-07
4.13931e-07
4.09258e-07
4.03278e-07
3.96536e-07
3.89351e-07
3.82167e-07
3.75025e-07
3.68444e-07
3.62292e-07
3.5682e-07
3.5208e-07
3.4848e-07
3.45974e-07
3.44532e-07
3.45151e-07
3.48279e-07
3.54574e-07
3.65652e-07
3.7838e-07
3.6602e-07
6.98923e-10
2.33871e-09
4.23794e-09
6.39561e-09
8.8103e-09
1.14836e-08
1.44229e-08
1.76433e-08
2.14341e-08
2.66496e-08
3.28216e-08
4.01094e-08
4.78193e-08
5.59861e-08
6.54094e-08
7.62781e-08
8.88442e-08
1.03293e-07
1.20553e-07
1.40536e-07
1.61469e-07
1.8513e-07
2.09606e-07
2.36011e-07
2.6084e-07
2.85036e-07
3.0749e-07
3.27064e-07
3.43596e-07
3.56571e-07
3.66016e-07
3.72179e-07
3.76458e-07
3.79057e-07
3.79631e-07
3.79277e-07
3.77966e-07
3.76167e-07
3.74242e-07
3.7167e-07
3.69236e-07
3.67131e-07
3.65476e-07
3.64532e-07
3.64376e-07
3.64895e-07
3.6657e-07
3.67563e-07
3.61163e-07
3.12768e-07
4.77237e-10
1.59089e-09
2.88004e-09
4.34696e-09
5.99169e-09
7.81266e-09
9.80858e-09
1.23287e-08
1.53562e-08
1.88638e-08
2.29134e-08
2.75725e-08
3.29192e-08
3.90387e-08
4.60277e-08
5.31461e-08
6.08818e-08
7.06617e-08
8.17697e-08
9.43975e-08
1.08753e-07
1.23428e-07
1.39554e-07
1.5784e-07
1.77421e-07
1.97385e-07
2.19217e-07
2.39621e-07
2.61101e-07
2.80409e-07
2.98464e-07
3.11645e-07
3.23776e-07
3.32702e-07
3.4086e-07
3.46552e-07
3.51854e-07
3.54101e-07
3.56118e-07
3.57324e-07
3.57688e-07
3.57836e-07
3.57572e-07
3.56714e-07
3.54965e-07
3.52334e-07
3.46928e-07
3.35132e-07
3.05843e-07
2.29463e-07
3.14563e-10
1.05134e-09
1.91098e-09
2.89842e-09
4.07017e-09
5.46357e-09
7.08556e-09
8.96269e-09
1.11225e-08
1.3594e-08
1.64088e-08
1.95992e-08
2.32016e-08
2.72553e-08
3.18039e-08
3.71462e-08
4.39392e-08
5.16681e-08
6.04583e-08
6.86912e-08
7.78414e-08
8.81436e-08
9.97908e-08
1.12993e-07
1.27956e-07
1.45904e-07
1.6418e-07
1.83852e-07
2.04909e-07
2.23873e-07
2.42048e-07
2.5976e-07
2.73379e-07
2.86594e-07
2.97638e-07
3.06247e-07
3.14333e-07
3.18827e-07
3.22375e-07
3.25118e-07
3.2576e-07
3.25026e-07
3.22742e-07
3.19632e-07
3.14618e-07
3.06418e-07
2.91287e-07
2.6161e-07
2.13474e-07
1.36352e-07
2.04464e-10
6.9645e-10
1.29397e-09
2.01395e-09
2.87199e-09
3.88309e-09
5.06212e-09
6.42424e-09
7.98505e-09
9.7598e-09
1.17667e-08
1.4024e-08
1.65489e-08
1.93626e-08
2.2777e-08
2.69033e-08
3.15697e-08
3.68406e-08
4.27976e-08
4.95445e-08
5.72018e-08
6.59278e-08
7.59297e-08
8.68553e-08
9.92588e-08
1.13357e-07
1.29024e-07
1.4617e-07
1.64633e-07
1.8219e-07
1.98173e-07
2.13706e-07
2.28676e-07
2.40883e-07
2.50697e-07
2.59525e-07
2.67182e-07
2.71557e-07
2.74017e-07
2.74749e-07
2.73609e-07
2.70023e-07
2.62873e-07
2.53569e-07
2.4306e-07
2.25865e-07
1.9777e-07
1.59557e-07
1.13261e-07
6.32511e-08
1.17986e-10
4.23338e-10
8.15567e-10
1.30603e-09
1.90442e-09
2.61925e-09
3.45956e-09
4.43412e-09
5.5512e-09
6.81989e-09
8.24996e-09
9.85281e-09
1.17807e-08
1.40786e-08
1.66755e-08
1.95991e-08
2.28858e-08
2.65811e-08
3.07445e-08
3.54463e-08
4.0769e-08
4.75788e-08
5.56619e-08
6.50678e-08
7.60275e-08
8.87565e-08
1.03037e-07
1.15848e-07
1.29461e-07
1.43585e-07
1.57705e-07
1.71316e-07
1.84074e-07
1.93957e-07
2.01129e-07
2.06728e-07
2.10505e-07
2.12232e-07
2.11721e-07
2.08467e-07
2.0213e-07
1.93965e-07
1.82614e-07
1.66693e-07
1.48623e-07
1.27589e-07
1.00144e-07
7.23645e-08
4.25346e-08
1.96565e-08
4.2247e-11
1.88894e-10
4.18296e-10
7.23021e-10
1.10724e-09
1.5764e-09
2.13822e-09
2.79752e-09
3.6011e-09
4.55937e-09
5.66915e-09
6.94332e-09
8.39493e-09
1.00347e-08
1.18695e-08
1.39132e-08
1.61914e-08
1.87361e-08
2.17651e-08
2.54872e-08
2.9735e-08
3.45694e-08
4.02023e-08
4.67599e-08
5.43938e-08
6.33554e-08
7.37177e-08
8.50405e-08
9.69847e-08
1.09189e-07
1.20742e-07
1.29025e-07
1.36153e-07
1.41782e-07
1.46122e-07
1.48486e-07
1.48573e-07
1.46155e-07
1.4161e-07
1.3573e-07
1.265e-07
1.14574e-07
1.00337e-07
8.52758e-08
6.80312e-08
5.02966e-08
3.37236e-08
2.04791e-08
1.08372e-08
4.66959e-09
1.86449e-12
3.91261e-11
1.25127e-10
2.75881e-10
4.9337e-10
7.84055e-10
1.15305e-09
1.62397e-09
2.20887e-09
2.91314e-09
3.74657e-09
4.71739e-09
5.83031e-09
7.08038e-09
8.43866e-09
9.93859e-09
1.15993e-08
1.343e-08
1.54664e-08
1.78345e-08
2.0524e-08
2.36012e-08
2.7146e-08
3.12275e-08
3.58894e-08
4.11314e-08
4.68677e-08
5.29316e-08
5.91298e-08
6.52063e-08
7.08746e-08
7.57748e-08
7.9534e-08
8.18344e-08
8.24228e-08
8.11384e-08
7.7941e-08
7.2943e-08
6.6291e-08
5.84591e-08
4.97133e-08
4.08472e-08
3.21574e-08
2.41721e-08
1.72276e-08
1.15517e-08
7.18589e-09
4.18246e-09
2.33008e-09
8.03674e-10
)
;

boundaryField
{
    AXIS
    {
        type            empty;
    }
    OUTLET
    {
        type            calculated;
        value           nonuniform List<scalar> 
25
(
1.34217e-07
1.34984e-07
1.36595e-07
1.39403e-07
1.43538e-07
1.49641e-07
1.57952e-07
1.71476e-07
1.96361e-07
2.21466e-07
2.46813e-07
2.73627e-07
3.02362e-07
3.32048e-07
3.60386e-07
3.81401e-07
3.86837e-07
3.6602e-07
3.12768e-07
2.29463e-07
1.36352e-07
6.32511e-08
1.96565e-08
4.66959e-09
8.03674e-10
)
;
    }
    COFLOW
    {
        type            calculated;
        value           uniform 0;
    }
    PILOT
    {
        type            calculated;
        value           uniform 1.26367e-07;
    }
    FUEL
    {
        type            calculated;
        value           uniform 0;
    }
    WALL
    {
        type            calculated;
        value           nonuniform List<scalar> 
50
(
1.86449e-12
3.91261e-11
1.25127e-10
2.75881e-10
4.9337e-10
7.84055e-10
1.15305e-09
1.62397e-09
2.20887e-09
2.91314e-09
3.74657e-09
4.71739e-09
5.83031e-09
7.08038e-09
8.43866e-09
9.93859e-09
1.15993e-08
1.343e-08
1.54664e-08
1.78345e-08
2.0524e-08
2.36012e-08
2.7146e-08
3.12275e-08
3.58894e-08
4.11314e-08
4.68677e-08
5.29316e-08
5.91298e-08
6.52063e-08
7.08746e-08
7.57748e-08
7.9534e-08
8.18344e-08
8.24228e-08
8.11384e-08
7.7941e-08
7.2943e-08
6.6291e-08
5.84591e-08
4.97133e-08
4.08472e-08
3.21574e-08
2.41721e-08
1.72276e-08
1.15517e-08
7.18589e-09
4.18246e-09
2.33008e-09
8.03674e-10
)
;
    }
    front
    {
        type            wedge;
    }
    back
    {
        type            wedge;
    }
}


// ************************************************************************* //
