/*--------------------------------*- C++ -*----------------------------------*\
| =========                 |                                                 |
| \\      /  F ield         | OpenFOAM: The Open Source CFD Toolbox           |
|  \\    /   O peration     | Version:  2.4.x                                 |
|   \\  /    A nd           | Web:      www.OpenFOAM.org                      |
|    \\/     M anipulation  |                                                 |
\*---------------------------------------------------------------------------*/
FoamFile
{
    version     2.0;
    format      ascii;
    class       volScalarField;
    location    "0.1";
    object      HCCO;
}
// * * * * * * * * * * * * * * * * * * * * * * * * * * * * * * * * * * * * * //

dimensions      [0 0 0 0 0 0 0];

internalField   nonuniform List<scalar> 
1250
(
6.51399e-09
2.48256e-08
4.73692e-08
7.71429e-08
1.20918e-07
1.83543e-07
2.67603e-07
3.72968e-07
4.90625e-07
5.91574e-07
6.9685e-07
7.98104e-07
9.0474e-07
1.01355e-06
1.12491e-06
1.23877e-06
1.34187e-06
1.43348e-06
1.53097e-06
1.63453e-06
1.74286e-06
1.85247e-06
1.96174e-06
2.06537e-06
2.14699e-06
2.20448e-06
2.26081e-06
2.30872e-06
2.3602e-06
2.41016e-06
2.45627e-06
2.49494e-06
2.52665e-06
2.55798e-06
2.58625e-06
2.60551e-06
2.61295e-06
2.6108e-06
2.59465e-06
2.56662e-06
2.52409e-06
2.47161e-06
2.41061e-06
2.32574e-06
2.25071e-06
2.15498e-06
2.02917e-06
1.95934e-06
1.85803e-06
1.42159e-06
7.56623e-09
2.83114e-08
5.31272e-08
8.76763e-08
1.39784e-07
2.1365e-07
3.10865e-07
4.27901e-07
5.30473e-07
6.3567e-07
7.4314e-07
8.46598e-07
9.53949e-07
1.06342e-06
1.17537e-06
1.28792e-06
1.38917e-06
1.48044e-06
1.57743e-06
1.6803e-06
1.78734e-06
1.89338e-06
2.00497e-06
2.11254e-06
2.20801e-06
2.26303e-06
2.31217e-06
2.35882e-06
2.40777e-06
2.45518e-06
2.49779e-06
2.53269e-06
2.56019e-06
2.5892e-06
2.61408e-06
2.62979e-06
2.63447e-06
2.62892e-06
2.6095e-06
2.57842e-06
2.53319e-06
2.47821e-06
2.41471e-06
2.3281e-06
2.25142e-06
2.15426e-06
2.02682e-06
1.95603e-06
1.85296e-06
1.41284e-06
1.0885e-08
3.85686e-08
7.15663e-08
1.23698e-07
2.03416e-07
3.09893e-07
4.25792e-07
5.26768e-07
6.34954e-07
7.47921e-07
8.58694e-07
9.64522e-07
1.07274e-06
1.18243e-06
1.29233e-06
1.40222e-06
1.49847e-06
1.58792e-06
1.68322e-06
1.7834e-06
1.88475e-06
1.98961e-06
2.10656e-06
2.21539e-06
2.32736e-06
2.38849e-06
2.42668e-06
2.46941e-06
2.51326e-06
2.55445e-06
2.58993e-06
2.61579e-06
2.63447e-06
2.65708e-06
2.67453e-06
2.6822e-06
2.68038e-06
2.66733e-06
2.64049e-06
2.60314e-06
2.55281e-06
2.49216e-06
2.42329e-06
2.33271e-06
2.25261e-06
2.1518e-06
2.01982e-06
1.94585e-06
1.83972e-06
1.39352e-06
2.11368e-08
6.67093e-08
1.34281e-07
2.48655e-07
3.80785e-07
4.90474e-07
6.05355e-07
7.23803e-07
8.41769e-07
9.60605e-07
1.0703e-06
1.174e-06
1.27798e-06
1.38244e-06
1.48625e-06
1.58886e-06
1.67592e-06
1.76076e-06
1.85062e-06
1.94189e-06
2.04066e-06
2.151e-06
2.26696e-06
2.36976e-06
2.46787e-06
2.57052e-06
2.60337e-06
2.63881e-06
2.67329e-06
2.70306e-06
2.72358e-06
2.7374e-06
2.74589e-06
2.75306e-06
2.75887e-06
2.75631e-06
2.74373e-06
2.71939e-06
2.68243e-06
2.63663e-06
2.5776e-06
2.50854e-06
2.43214e-06
2.33525e-06
2.24996e-06
2.14283e-06
2.00705e-06
1.92866e-06
1.81895e-06
1.36444e-06
6.77244e-08
2.13462e-07
4.17717e-07
5.73016e-07
7.20325e-07
8.5778e-07
9.80232e-07
1.10273e-06
1.21543e-06
1.32451e-06
1.41577e-06
1.5049e-06
1.5928e-06
1.6796e-06
1.76789e-06
1.85847e-06
1.92985e-06
2.00309e-06
2.08334e-06
2.17348e-06
2.27122e-06
2.37324e-06
2.47224e-06
2.5529e-06
2.64176e-06
2.74355e-06
2.8437e-06
2.86572e-06
2.8811e-06
2.88996e-06
2.89414e-06
2.89364e-06
2.88631e-06
2.86918e-06
2.8604e-06
2.84354e-06
2.8158e-06
2.77774e-06
2.72917e-06
2.67214e-06
2.60112e-06
2.5221e-06
2.43703e-06
2.33255e-06
2.24075e-06
2.12558e-06
1.98464e-06
1.90104e-06
1.78852e-06
1.32654e-06
1.27091e-06
1.17316e-06
1.1534e-06
1.20478e-06
1.27879e-06
1.36257e-06
1.44836e-06
1.54359e-06
1.6372e-06
1.72884e-06
1.81529e-06
1.9128e-06
2.0183e-06
2.087e-06
2.1509e-06
2.21606e-06
2.26699e-06
2.32882e-06
2.39975e-06
2.47629e-06
2.5491e-06
2.62286e-06
2.69848e-06
2.7766e-06
2.86615e-06
2.96324e-06
3.05943e-06
3.13042e-06
3.1216e-06
3.11049e-06
3.09401e-06
3.07031e-06
3.04035e-06
3.00372e-06
2.96466e-06
2.93046e-06
2.88691e-06
2.83475e-06
2.77148e-06
2.69949e-06
2.6156e-06
2.52664e-06
2.43154e-06
2.31842e-06
2.21928e-06
2.09529e-06
1.95078e-06
1.86299e-06
1.7453e-06
1.28104e-06
3.5426e-06
2.49279e-06
2.12873e-06
2.00356e-06
1.96918e-06
2.00311e-06
2.03646e-06
2.08485e-06
2.14404e-06
2.2075e-06
2.27796e-06
2.35746e-06
2.44314e-06
2.5351e-06
2.62448e-06
2.65206e-06
2.68144e-06
2.71768e-06
2.75996e-06
2.80724e-06
2.85934e-06
2.91809e-06
2.98325e-06
3.0465e-06
3.11595e-06
3.19049e-06
3.26764e-06
3.34722e-06
3.38275e-06
3.34377e-06
3.29969e-06
3.25064e-06
3.19555e-06
3.13391e-06
3.06623e-06
3.00492e-06
2.94536e-06
2.87619e-06
2.79696e-06
2.71147e-06
2.61535e-06
2.51544e-06
2.40896e-06
2.28715e-06
2.18081e-06
2.0487e-06
1.90272e-06
1.81192e-06
1.68977e-06
1.23061e-06
1.99237e-06
2.8027e-06
2.66827e-06
2.61604e-06
2.57881e-06
2.60823e-06
2.62901e-06
2.65329e-06
2.68384e-06
2.72733e-06
2.77716e-06
2.83343e-06
2.89595e-06
2.96239e-06
3.0328e-06
3.11414e-06
3.11796e-06
3.12911e-06
3.14766e-06
3.17148e-06
3.19946e-06
3.23055e-06
3.26396e-06
3.30259e-06
3.35741e-06
3.41302e-06
3.47045e-06
3.52739e-06
3.58265e-06
3.5626e-06
3.48806e-06
3.40939e-06
3.32804e-06
3.24386e-06
3.15412e-06
3.06075e-06
2.97647e-06
2.891e-06
2.79708e-06
2.6982e-06
2.59018e-06
2.47987e-06
2.36291e-06
2.23483e-06
2.12292e-06
1.98329e-06
1.83927e-06
1.74506e-06
1.62283e-06
1.1733e-06
4.41686e-07
2.02496e-06
2.24444e-06
2.56194e-06
2.77269e-06
2.90223e-06
3.0014e-06
3.05903e-06
3.10723e-06
3.16509e-06
3.21454e-06
3.26233e-06
3.31107e-06
3.36047e-06
3.41292e-06
3.48941e-06
3.55185e-06
3.53547e-06
3.52554e-06
3.52043e-06
3.51794e-06
3.51961e-06
3.52491e-06
3.53319e-06
3.56972e-06
3.60468e-06
3.63976e-06
3.67021e-06
3.69956e-06
3.72341e-06
3.63085e-06
3.52647e-06
3.41906e-06
3.31084e-06
3.19947e-06
3.08766e-06
2.97563e-06
2.8717e-06
2.76428e-06
2.65291e-06
2.53419e-06
2.41498e-06
2.28991e-06
2.15781e-06
2.04178e-06
1.89711e-06
1.75779e-06
1.66471e-06
1.54483e-06
1.09709e-06
7.1662e-08
6.67674e-07
1.26909e-06
1.8452e-06
2.34017e-06
2.7067e-06
2.96385e-06
3.13812e-06
3.29942e-06
3.43927e-06
3.54932e-06
3.63196e-06
3.69311e-06
3.74256e-06
3.78591e-06
3.8468e-06
3.91629e-06
3.88814e-06
3.85189e-06
3.81827e-06
3.7872e-06
3.75892e-06
3.73245e-06
3.70773e-06
3.71582e-06
3.72844e-06
3.73975e-06
3.74641e-06
3.75069e-06
3.75004e-06
3.69704e-06
3.57049e-06
3.44405e-06
3.31728e-06
3.19164e-06
3.06419e-06
2.93794e-06
2.81107e-06
2.69052e-06
2.57032e-06
2.44454e-06
2.31925e-06
2.18965e-06
2.05722e-06
1.93798e-06
1.79213e-06
1.66281e-06
1.57191e-06
1.4563e-06
1.01501e-06
6.16453e-09
9.10761e-08
3.89783e-07
9.44602e-07
1.54184e-06
2.05368e-06
2.48007e-06
2.8098e-06
3.07303e-06
3.27948e-06
3.49822e-06
3.65621e-06
3.78068e-06
3.88579e-06
3.97317e-06
4.05849e-06
4.1331e-06
4.09513e-06
4.03729e-06
3.98092e-06
3.92694e-06
3.87547e-06
3.82652e-06
3.7799e-06
3.76158e-06
3.75568e-06
3.74541e-06
3.73219e-06
3.71599e-06
3.69487e-06
3.6651e-06
3.52551e-06
3.38414e-06
3.24575e-06
3.10811e-06
2.97311e-06
2.83845e-06
2.70687e-06
2.5742e-06
2.44682e-06
2.31817e-06
2.18997e-06
2.05851e-06
1.92901e-06
1.81076e-06
1.66755e-06
1.55041e-06
1.46525e-06
1.34377e-06
9.28561e-07
3.97956e-09
2.30606e-08
7.34297e-08
2.51091e-07
6.12705e-07
1.16388e-06
1.68555e-06
2.09777e-06
2.47355e-06
2.78047e-06
3.02371e-06
3.23072e-06
3.40519e-06
3.54686e-06
3.6791e-06
3.84743e-06
3.9494e-06
3.94761e-06
3.919e-06
3.88262e-06
3.83995e-06
3.79354e-06
3.74568e-06
3.69647e-06
3.66164e-06
3.64191e-06
3.61728e-06
3.58857e-06
3.55617e-06
3.52095e-06
3.48254e-06
3.35163e-06
3.20881e-06
3.06864e-06
2.93028e-06
2.79406e-06
2.66057e-06
2.52707e-06
2.39642e-06
2.26945e-06
2.14269e-06
2.01785e-06
1.88962e-06
1.76612e-06
1.65109e-06
1.51639e-06
1.41449e-06
1.33923e-06
1.20898e-06
8.30416e-07
2.28477e-09
1.01782e-08
2.33485e-08
5.24243e-08
1.33683e-07
3.4548e-07
6.50471e-07
1.04751e-06
1.48351e-06
1.8952e-06
2.25479e-06
2.54727e-06
2.80051e-06
2.9762e-06
3.10413e-06
3.22522e-06
3.30904e-06
3.36423e-06
3.40296e-06
3.42339e-06
3.42664e-06
3.41745e-06
3.40023e-06
3.37644e-06
3.3501e-06
3.32652e-06
3.29801e-06
3.26529e-06
3.22836e-06
3.18906e-06
3.14257e-06
3.01313e-06
2.88474e-06
2.75676e-06
2.62946e-06
2.5041e-06
2.38019e-06
2.25794e-06
2.1375e-06
2.01934e-06
1.9027e-06
1.78949e-06
1.6732e-06
1.55986e-06
1.45232e-06
1.334e-06
1.25199e-06
1.17875e-06
1.0497e-06
7.19849e-07
1.3967e-09
5.53714e-09
1.14502e-08
2.00845e-08
3.58444e-08
6.71761e-08
1.34471e-07
2.72276e-07
4.99603e-07
7.52454e-07
1.03865e-06
1.32964e-06
1.60312e-06
1.83142e-06
2.03118e-06
2.20536e-06
2.35262e-06
2.47169e-06
2.57088e-06
2.64569e-06
2.70322e-06
2.74285e-06
2.77034e-06
2.78525e-06
2.78502e-06
2.77296e-06
2.75491e-06
2.73236e-06
2.7058e-06
2.67592e-06
2.59384e-06
2.49625e-06
2.39716e-06
2.29787e-06
2.19598e-06
2.09416e-06
1.99207e-06
1.8904e-06
1.78894e-06
1.68913e-06
1.59004e-06
1.49381e-06
1.39641e-06
1.30409e-06
1.21385e-06
1.11695e-06
1.05111e-06
9.80983e-07
8.74086e-07
5.99829e-07
9.06847e-10
3.36397e-09
6.5905e-09
1.07611e-08
1.61e-08
2.35968e-08
3.53084e-08
5.58474e-08
9.35486e-08
1.61631e-07
2.73044e-07
4.25941e-07
6.06163e-07
7.71084e-07
9.39349e-07
1.10319e-06
1.25904e-06
1.4031e-06
1.53467e-06
1.65354e-06
1.75641e-06
1.84115e-06
1.91521e-06
1.97216e-06
2.00043e-06
2.01619e-06
2.02551e-06
2.02815e-06
1.99591e-06
1.94964e-06
1.89957e-06
1.84575e-06
1.78739e-06
1.72582e-06
1.65882e-06
1.59092e-06
1.52012e-06
1.44715e-06
1.37326e-06
1.29898e-06
1.22441e-06
1.15094e-06
1.07785e-06
1.00809e-06
9.39979e-07
8.72511e-07
8.27461e-07
7.67229e-07
6.89058e-07
4.76107e-07
6.08984e-10
2.15667e-09
4.05606e-09
6.31942e-09
9.00237e-09
1.22151e-08
1.59849e-08
2.10131e-08
2.807e-08
3.87575e-08
5.52883e-08
7.95969e-08
1.16199e-07
1.68353e-07
2.37171e-07
3.21497e-07
4.17882e-07
5.2211e-07
6.29751e-07
7.34398e-07
8.34173e-07
9.25357e-07
1.00687e-06
1.06198e-06
1.10386e-06
1.13571e-06
1.15925e-06
1.174e-06
1.18072e-06
1.17954e-06
1.17295e-06
1.16079e-06
1.14249e-06
1.11929e-06
1.09003e-06
1.05711e-06
1.01952e-06
9.79607e-07
9.37295e-07
8.92424e-07
8.46676e-07
8.00122e-07
7.53616e-07
7.08043e-07
6.66225e-07
6.26858e-07
5.97765e-07
5.58704e-07
5.07414e-07
3.55471e-07
4.13383e-10
1.42054e-09
2.61083e-09
3.97379e-09
5.50407e-09
7.21058e-09
9.12584e-09
1.12627e-08
1.36505e-08
1.65751e-08
1.98588e-08
2.39055e-08
2.93903e-08
3.70023e-08
4.77796e-08
6.28695e-08
8.36072e-08
1.11217e-07
1.45834e-07
1.86808e-07
2.31855e-07
2.78101e-07
3.24206e-07
3.68556e-07
4.09796e-07
4.47506e-07
4.80974e-07
5.10081e-07
5.34417e-07
5.54376e-07
5.70929e-07
5.82274e-07
5.89419e-07
5.91612e-07
5.89374e-07
5.83251e-07
5.72912e-07
5.59653e-07
5.43542e-07
5.25125e-07
5.05643e-07
4.84352e-07
4.63058e-07
4.41797e-07
4.23473e-07
4.06434e-07
3.93252e-07
3.76958e-07
3.46246e-07
2.43571e-07
2.80006e-10
9.44563e-10
1.71376e-09
2.57782e-09
3.52575e-09
4.54862e-09
5.64207e-09
6.80879e-09
8.0603e-09
9.32413e-09
1.04046e-08
1.15474e-08
1.27897e-08
1.41989e-08
1.59353e-08
1.80443e-08
2.09458e-08
2.47087e-08
3.00766e-08
3.71037e-08
4.59694e-08
5.68946e-08
6.97669e-08
8.4465e-08
1.00696e-07
1.17927e-07
1.35595e-07
1.53533e-07
1.70808e-07
1.87659e-07
2.03377e-07
2.17154e-07
2.29004e-07
2.38915e-07
2.46786e-07
2.52275e-07
2.55935e-07
2.57715e-07
2.57412e-07
2.55436e-07
2.52522e-07
2.48501e-07
2.44654e-07
2.40622e-07
2.37638e-07
2.35253e-07
2.36024e-07
2.33418e-07
2.15111e-07
1.48714e-07
1.87334e-10
6.25433e-10
1.12761e-09
1.68773e-09
2.2978e-09
2.94913e-09
3.63346e-09
4.34375e-09
5.04803e-09
5.65865e-09
6.2306e-09
6.75509e-09
7.20335e-09
7.591e-09
7.94589e-09
8.26695e-09
8.55703e-09
9.17425e-09
1.0024e-08
1.09676e-08
1.22219e-08
1.36469e-08
1.54803e-08
1.76007e-08
2.03409e-08
2.36299e-08
2.74811e-08
3.19815e-08
3.70353e-08
4.26035e-08
4.85599e-08
5.49351e-08
6.12604e-08
6.74037e-08
7.37669e-08
7.96709e-08
8.52857e-08
9.03437e-08
9.47504e-08
9.89448e-08
1.02702e-07
1.06064e-07
1.09567e-07
1.13245e-07
1.1746e-07
1.21971e-07
1.2791e-07
1.29422e-07
1.1792e-07
7.74577e-08
1.22377e-10
4.0691e-10
7.3268e-10
1.09654e-09
1.49378e-09
1.91838e-09
2.36366e-09
2.78697e-09
3.18313e-09
3.54952e-09
3.87578e-09
4.15214e-09
4.37044e-09
4.52306e-09
4.60306e-09
4.60303e-09
4.62049e-09
4.75045e-09
4.84941e-09
4.91638e-09
4.94556e-09
5.00599e-09
5.0524e-09
5.06521e-09
5.10521e-09
5.21237e-09
5.30731e-09
5.60284e-09
6.10437e-09
7.28934e-09
8.59709e-09
1.03197e-08
1.21728e-08
1.43947e-08
1.67194e-08
1.93413e-08
2.19786e-08
2.50511e-08
2.80879e-08
3.11825e-08
3.4416e-08
3.82745e-08
4.24861e-08
4.70585e-08
5.19796e-08
5.71198e-08
6.20807e-08
6.2412e-08
5.57156e-08
3.28939e-08
7.66942e-11
2.55636e-10
4.62079e-10
6.9485e-10
9.45826e-10
1.20723e-09
1.47317e-09
1.73518e-09
1.98416e-09
2.21112e-09
2.4074e-09
2.56447e-09
2.67466e-09
2.73072e-09
2.72585e-09
2.69349e-09
2.72455e-09
2.71487e-09
2.66084e-09
2.569e-09
2.42743e-09
2.23079e-09
1.97478e-09
1.6557e-09
1.27833e-09
1.35665e-09
1.46728e-09
1.58916e-09
1.73099e-09
1.97114e-09
2.27347e-09
2.6359e-09
3.15642e-09
3.75014e-09
4.48018e-09
5.35824e-09
6.31657e-09
7.50491e-09
8.79803e-09
1.01524e-08
1.16976e-08
1.33288e-08
1.49909e-08
1.78906e-08
2.11286e-08
2.41648e-08
2.59472e-08
2.57382e-08
2.15183e-08
1.06996e-08
4.34722e-11
1.46577e-10
2.66933e-10
4.03181e-10
5.52396e-10
7.10352e-10
8.71825e-10
1.03086e-09
1.18107e-09
1.31584e-09
1.42862e-09
1.51298e-09
1.56251e-09
1.57119e-09
1.58029e-09
1.59761e-09
1.58303e-09
1.53298e-09
1.44352e-09
1.31038e-09
1.12829e-09
8.91658e-10
5.94481e-10
5.83927e-10
5.80547e-10
5.72545e-10
5.63466e-10
5.57564e-10
5.60407e-10
5.95639e-10
6.7132e-10
7.81354e-10
9.28889e-10
1.13782e-09
1.40916e-09
1.72823e-09
2.0949e-09
2.54642e-09
3.05889e-09
3.61059e-09
4.19693e-09
4.79583e-09
5.37396e-09
6.05358e-09
7.6153e-09
8.81133e-09
9.53718e-09
8.87254e-09
6.29309e-09
2.97184e-09
2.03401e-11
7.20092e-11
1.35214e-10
2.08727e-10
2.90321e-10
3.77011e-10
4.65332e-10
5.51395e-10
6.30981e-10
6.99666e-10
7.52852e-10
7.86035e-10
8.17751e-10
8.48838e-10
8.61e-10
8.51366e-10
8.1691e-10
7.54219e-10
6.59497e-10
5.28547e-10
3.57094e-10
3.07052e-10
2.88832e-10
2.65139e-10
2.36552e-10
2.0433e-10
1.72485e-10
1.48182e-10
1.28861e-10
1.20802e-10
1.3148e-10
1.64293e-10
2.19836e-10
3.04821e-10
4.2146e-10
5.65418e-10
7.34782e-10
9.25387e-10
1.13171e-09
1.34618e-09
1.55976e-09
1.75081e-09
1.89825e-09
1.96988e-09
2.47719e-09
2.95659e-09
2.93452e-09
2.40575e-09
1.52938e-09
7.15581e-10
5.52513e-12
2.41246e-11
5.05953e-11
8.17389e-11
1.1575e-10
1.50807e-10
1.85203e-10
2.16845e-10
2.50121e-10
2.83038e-10
3.11213e-10
3.32722e-10
3.45565e-10
3.47761e-10
3.37215e-10
3.11476e-10
2.67715e-10
2.0304e-10
1.52142e-10
1.45125e-10
1.34106e-10
1.19386e-10
9.97559e-11
7.59479e-11
4.86998e-11
1.76103e-11
1.80365e-12
1.90733e-12
2.06646e-12
2.29301e-12
2.64937e-12
3.42681e-12
4.29511e-12
5.24004e-12
5.9075e-11
1.29212e-10
2.10893e-10
3.00508e-10
3.90321e-10
4.70062e-10
5.391e-10
5.86642e-10
6.10392e-10
5.86455e-10
5.47724e-10
6.57906e-10
5.94184e-10
4.38008e-10
2.5373e-10
1.14577e-10
1.64614e-13
2.80035e-12
6.11385e-12
8.55306e-12
1.03085e-11
1.09227e-11
1.02076e-11
1.11226e-11
1.31841e-11
1.50775e-11
1.66608e-11
1.77808e-11
1.82867e-11
1.80731e-11
1.70857e-11
1.49925e-11
1.14652e-11
6.29418e-12
3.93693e-13
3.90594e-13
3.81386e-13
3.65891e-13
3.44708e-13
3.19901e-13
2.94619e-13
2.73073e-13
2.61163e-13
2.64194e-13
2.84857e-13
3.25906e-13
3.89781e-13
4.74843e-13
5.77469e-13
6.93916e-13
8.18827e-13
9.44778e-13
1.06293e-12
1.16363e-12
1.23565e-12
1.26883e-12
1.25604e-12
1.98829e-11
3.62036e-11
4.37681e-11
4.35529e-11
3.74125e-11
2.73322e-11
1.75941e-11
9.23114e-12
5.31415e-12
)
;

boundaryField
{
    AXIS
    {
        type            empty;
    }
    OUTLET
    {
        type            calculated;
        value           nonuniform List<scalar> 
25
(
1.42159e-06
1.41284e-06
1.39352e-06
1.36444e-06
1.32654e-06
1.28104e-06
1.23061e-06
1.1733e-06
1.09709e-06
1.01501e-06
9.28561e-07
8.30416e-07
7.19849e-07
5.99829e-07
4.76107e-07
3.55471e-07
2.43571e-07
1.48714e-07
7.74577e-08
3.28939e-08
1.06996e-08
2.97184e-09
7.15581e-10
1.14577e-10
5.31415e-12
)
;
    }
    COFLOW
    {
        type            calculated;
        value           uniform 0;
    }
    PILOT
    {
        type            calculated;
        value           uniform 7.02056e-18;
    }
    FUEL
    {
        type            calculated;
        value           uniform 0;
    }
    WALL
    {
        type            calculated;
        value           nonuniform List<scalar> 
50
(
1.64614e-13
2.80035e-12
6.11385e-12
8.55306e-12
1.03085e-11
1.09227e-11
1.02076e-11
1.11226e-11
1.31841e-11
1.50775e-11
1.66608e-11
1.77808e-11
1.82867e-11
1.80731e-11
1.70857e-11
1.49925e-11
1.14652e-11
6.29418e-12
3.93693e-13
3.90594e-13
3.81386e-13
3.65891e-13
3.44708e-13
3.19901e-13
2.94619e-13
2.73073e-13
2.61163e-13
2.64194e-13
2.84857e-13
3.25906e-13
3.89781e-13
4.74843e-13
5.77469e-13
6.93916e-13
8.18827e-13
9.44778e-13
1.06293e-12
1.16363e-12
1.23565e-12
1.26883e-12
1.25604e-12
1.98829e-11
3.62036e-11
4.37681e-11
4.35529e-11
3.74125e-11
2.73322e-11
1.75941e-11
9.23114e-12
5.31415e-12
)
;
    }
    front
    {
        type            wedge;
    }
    back
    {
        type            wedge;
    }
}


// ************************************************************************* //
