/*--------------------------------*- C++ -*----------------------------------*\
| =========                 |                                                 |
| \\      /  F ield         | OpenFOAM: The Open Source CFD Toolbox           |
|  \\    /   O peration     | Version:  2.4.x                                 |
|   \\  /    A nd           | Web:      www.OpenFOAM.org                      |
|    \\/     M anipulation  |                                                 |
\*---------------------------------------------------------------------------*/
FoamFile
{
    version     2.0;
    format      ascii;
    class       volScalarField;
    location    "0.1";
    object      HCCOH;
}
// * * * * * * * * * * * * * * * * * * * * * * * * * * * * * * * * * * * * * //

dimensions      [0 0 0 0 0 0 0];

internalField   nonuniform List<scalar> 
1250
(
3.81364e-08
1.41535e-07
2.52216e-07
3.62492e-07
4.78134e-07
6.01212e-07
7.34099e-07
8.77387e-07
1.02991e-06
1.18326e-06
1.34319e-06
1.50828e-06
1.68689e-06
1.87793e-06
2.0763e-06
2.28868e-06
2.50177e-06
2.71352e-06
2.9386e-06
3.17772e-06
3.42877e-06
3.69348e-06
3.97103e-06
4.22583e-06
4.48497e-06
4.75264e-06
5.0361e-06
5.32974e-06
5.63369e-06
5.93779e-06
6.24296e-06
6.54177e-06
6.83453e-06
7.12794e-06
7.4241e-06
7.70999e-06
7.98036e-06
8.23233e-06
8.44713e-06
8.63085e-06
8.75915e-06
8.84945e-06
8.87769e-06
8.82256e-06
8.73985e-06
8.55773e-06
8.24946e-06
7.90312e-06
7.10401e-06
4.96605e-06
4.41594e-08
1.60243e-07
2.7598e-07
3.90796e-07
5.1094e-07
6.38422e-07
7.75474e-07
9.21777e-07
1.06828e-06
1.22304e-06
1.38356e-06
1.54962e-06
1.73006e-06
1.92029e-06
2.12002e-06
2.33353e-06
2.54621e-06
2.75863e-06
2.98534e-06
3.22467e-06
3.47685e-06
3.74286e-06
4.02006e-06
4.27591e-06
4.53496e-06
4.80221e-06
5.08349e-06
5.37611e-06
5.67607e-06
5.97713e-06
6.27764e-06
6.57186e-06
6.85817e-06
7.1476e-06
7.43772e-06
7.71735e-06
7.98182e-06
8.22547e-06
8.43284e-06
8.6073e-06
8.72842e-06
8.80887e-06
8.83091e-06
8.76805e-06
8.68084e-06
8.49274e-06
8.18317e-06
7.8343e-06
7.03458e-06
4.91438e-06
6.3041e-08
2.13026e-07
3.41562e-07
4.67756e-07
5.98465e-07
7.34133e-07
8.7351e-07
1.01035e-06
1.15724e-06
1.3126e-06
1.47447e-06
1.64314e-06
1.82414e-06
2.01465e-06
2.2185e-06
2.43236e-06
2.64391e-06
2.85892e-06
3.0874e-06
3.3285e-06
3.58331e-06
3.85011e-06
4.12631e-06
4.38106e-06
4.64124e-06
4.9092e-06
5.18696e-06
5.47607e-06
5.76844e-06
6.06284e-06
6.3541e-06
6.63826e-06
6.91017e-06
7.18974e-06
7.46588e-06
7.73159e-06
7.9831e-06
8.20746e-06
8.40019e-06
8.55393e-06
8.66312e-06
8.72281e-06
8.73142e-06
8.65204e-06
8.55513e-06
8.35265e-06
8.03327e-06
7.67861e-06
6.87703e-06
4.80205e-06
1.20418e-07
3.37106e-07
4.88368e-07
6.29397e-07
7.64481e-07
8.8458e-07
1.01154e-06
1.14634e-06
1.29311e-06
1.4491e-06
1.61229e-06
1.78208e-06
1.96522e-06
2.1601e-06
2.36512e-06
2.57832e-06
2.7901e-06
3.00828e-06
3.24012e-06
3.48522e-06
3.74125e-06
4.00717e-06
4.27544e-06
4.52839e-06
4.78925e-06
5.06381e-06
5.33721e-06
5.61648e-06
5.89891e-06
6.18094e-06
6.45737e-06
6.72402e-06
6.98154e-06
7.23472e-06
7.49265e-06
7.74083e-06
7.96892e-06
8.17048e-06
8.33762e-06
8.4689e-06
8.55296e-06
8.58857e-06
8.57142e-06
8.47178e-06
8.35613e-06
8.13309e-06
7.81041e-06
7.45047e-06
6.64929e-06
4.63885e-06
3.6119e-07
6.9098e-07
8.02816e-07
8.7913e-07
9.65317e-07
1.06325e-06
1.1806e-06
1.31299e-06
1.46034e-06
1.61785e-06
1.78384e-06
1.95957e-06
2.14517e-06
2.33964e-06
2.54588e-06
2.76299e-06
2.97654e-06
3.2014e-06
3.43724e-06
3.68393e-06
3.9363e-06
4.19338e-06
4.45404e-06
4.70829e-06
4.97097e-06
5.2436e-06
5.52049e-06
5.78756e-06
6.0538e-06
6.31642e-06
6.57353e-06
6.82251e-06
7.05577e-06
7.27112e-06
7.50674e-06
7.72777e-06
7.92796e-06
8.0993e-06
8.23757e-06
8.34064e-06
8.3915e-06
8.3995e-06
8.35084e-06
8.22959e-06
8.09155e-06
7.84641e-06
7.51426e-06
7.15636e-06
6.35918e-06
4.43582e-06
2.5054e-06
1.37466e-06
1.17287e-06
1.1676e-06
1.22712e-06
1.31697e-06
1.43291e-06
1.56751e-06
1.70747e-06
1.85103e-06
2.00369e-06
2.16744e-06
2.3394e-06
2.54163e-06
2.75384e-06
2.97171e-06
3.19223e-06
3.42124e-06
3.65826e-06
3.90171e-06
4.14831e-06
4.39879e-06
4.65201e-06
4.90582e-06
5.16553e-06
5.43301e-06
5.70287e-06
5.96911e-06
6.2159e-06
6.45971e-06
6.68944e-06
6.90773e-06
7.11342e-06
7.30237e-06
7.4826e-06
7.67693e-06
7.84329e-06
7.98478e-06
8.0883e-06
8.15478e-06
8.17134e-06
8.14579e-06
8.0678e-06
7.92059e-06
7.76195e-06
7.4937e-06
7.15935e-06
6.79926e-06
6.02135e-06
4.20604e-06
4.04469e-06
1.96558e-06
1.51475e-06
1.4314e-06
1.45795e-06
1.54804e-06
1.66985e-06
1.80658e-06
1.95299e-06
2.1058e-06
2.2688e-06
2.43738e-06
2.60888e-06
2.78314e-06
2.9639e-06
3.18429e-06
3.41182e-06
3.64444e-06
3.88168e-06
4.12266e-06
4.36118e-06
4.60319e-06
4.84821e-06
5.09294e-06
5.34642e-06
5.60486e-06
5.86454e-06
6.12226e-06
6.36332e-06
6.57604e-06
6.77812e-06
6.9674e-06
7.14086e-06
7.29695e-06
7.42848e-06
7.5665e-06
7.70321e-06
7.80821e-06
7.87819e-06
7.90699e-06
7.88926e-06
7.83067e-06
7.71978e-06
7.55201e-06
7.37161e-06
7.08473e-06
6.75062e-06
6.39562e-06
5.65243e-06
3.95924e-06
3.40665e-06
2.14649e-06
1.64425e-06
1.57256e-06
1.60915e-06
1.72079e-06
1.86258e-06
2.01466e-06
2.17182e-06
2.33928e-06
2.51008e-06
2.68174e-06
2.85335e-06
3.02263e-06
3.18973e-06
3.36345e-06
3.59635e-06
3.83239e-06
4.06972e-06
4.30662e-06
4.54275e-06
4.77691e-06
5.00878e-06
5.24103e-06
5.48883e-06
5.73389e-06
5.97786e-06
6.21797e-06
6.45133e-06
6.65132e-06
6.8193e-06
6.97298e-06
7.1124e-06
7.23548e-06
7.33351e-06
7.40997e-06
7.49634e-06
7.56454e-06
7.59561e-06
7.58946e-06
7.53837e-06
7.45183e-06
7.31551e-06
7.12894e-06
6.9326e-06
6.62694e-06
6.30527e-06
5.95724e-06
5.26546e-06
3.69651e-06
1.22969e-06
1.80593e-06
1.53235e-06
1.554e-06
1.66666e-06
1.80056e-06
1.97114e-06
2.14533e-06
2.32146e-06
2.50756e-06
2.68893e-06
2.86617e-06
3.03959e-06
3.20756e-06
3.37128e-06
3.54827e-06
3.74543e-06
3.98256e-06
4.21752e-06
4.4491e-06
4.6748e-06
4.89608e-06
5.11322e-06
5.32458e-06
5.56359e-06
5.79482e-06
6.02167e-06
6.2385e-06
6.44978e-06
6.64932e-06
6.79005e-06
6.91112e-06
7.01363e-06
7.10034e-06
7.16297e-06
7.2056e-06
7.22747e-06
7.25058e-06
7.24751e-06
7.21019e-06
7.13263e-06
7.01822e-06
6.85832e-06
6.65826e-06
6.44561e-06
6.13671e-06
5.83163e-06
5.50117e-06
4.87422e-06
3.38126e-06
2.73317e-07
1.04969e-06
1.11593e-06
1.34727e-06
1.55744e-06
1.76247e-06
1.96152e-06
2.16516e-06
2.37729e-06
2.60184e-06
2.81641e-06
3.02043e-06
3.21326e-06
3.396e-06
3.5653e-06
3.72943e-06
3.89484e-06
4.1127e-06
4.33442e-06
4.54948e-06
4.75775e-06
4.9581e-06
5.15027e-06
5.33414e-06
5.54924e-06
5.76495e-06
5.97335e-06
6.16801e-06
6.35375e-06
6.52727e-06
6.66476e-06
6.75146e-06
6.8225e-06
6.87501e-06
6.90968e-06
6.9206e-06
6.91243e-06
6.88097e-06
6.84214e-06
6.77691e-06
6.67476e-06
6.53836e-06
6.36129e-06
6.15665e-06
5.93569e-06
5.63061e-06
5.35058e-06
5.04255e-06
4.48899e-06
3.07173e-06
4.07744e-08
3.41463e-07
6.55976e-07
9.48852e-07
1.2606e-06
1.53965e-06
1.79613e-06
2.03992e-06
2.26083e-06
2.48864e-06
2.73148e-06
2.96513e-06
3.17989e-06
3.38404e-06
3.57415e-06
3.74847e-06
3.91434e-06
4.12116e-06
4.32795e-06
4.52688e-06
4.71801e-06
4.90037e-06
5.0745e-06
5.23988e-06
5.4268e-06
5.62201e-06
5.80482e-06
5.9771e-06
6.13881e-06
6.28741e-06
6.42101e-06
6.48039e-06
6.52091e-06
6.54787e-06
6.55375e-06
6.54198e-06
6.50829e-06
6.45672e-06
6.37798e-06
6.28416e-06
6.16248e-06
6.01197e-06
5.82625e-06
5.6213e-06
5.39837e-06
5.10757e-06
4.85712e-06
4.57773e-06
4.05601e-06
2.76517e-06
2.75799e-08
1.3387e-07
2.78402e-07
5.18719e-07
8.26133e-07
1.12717e-06
1.43551e-06
1.70281e-06
1.96429e-06
2.21117e-06
2.43473e-06
2.65914e-06
2.86881e-06
3.06669e-06
3.25802e-06
3.47288e-06
3.7021e-06
3.92671e-06
4.12951e-06
4.32346e-06
4.50693e-06
4.68063e-06
4.84482e-06
4.99898e-06
5.15918e-06
5.32952e-06
5.48833e-06
5.63602e-06
5.77223e-06
5.89824e-06
6.01301e-06
6.05489e-06
6.07242e-06
6.076e-06
6.06133e-06
6.02845e-06
5.97854e-06
5.90678e-06
5.81749e-06
5.7079e-06
5.57633e-06
5.41842e-06
5.23118e-06
5.03154e-06
4.81337e-06
4.5482e-06
4.33486e-06
4.09128e-06
3.58256e-06
2.44812e-06
1.55714e-08
6.54125e-08
1.31774e-07
2.28671e-07
3.88601e-07
6.46789e-07
9.16425e-07
1.18989e-06
1.45506e-06
1.70592e-06
1.95178e-06
2.20131e-06
2.43453e-06
2.64101e-06
2.84813e-06
3.06281e-06
3.27437e-06
3.4806e-06
3.68046e-06
3.87447e-06
4.05812e-06
4.23241e-06
4.39698e-06
4.55276e-06
4.6998e-06
4.84165e-06
4.97478e-06
5.09885e-06
5.21246e-06
5.31789e-06
5.40963e-06
5.4281e-06
5.4326e-06
5.42251e-06
5.39489e-06
5.35217e-06
5.29231e-06
5.21468e-06
5.12062e-06
5.00794e-06
4.87875e-06
4.73463e-06
4.5651e-06
4.3792e-06
4.17672e-06
3.94943e-06
3.77581e-06
3.53599e-06
3.07492e-06
2.11394e-06
9.40282e-09
3.64679e-08
7.229e-08
1.17686e-07
1.83313e-07
2.73384e-07
4.01388e-07
5.89502e-07
8.35982e-07
1.0819e-06
1.33514e-06
1.58712e-06
1.83084e-06
2.04099e-06
2.24982e-06
2.45576e-06
2.65607e-06
2.85424e-06
3.04405e-06
3.22552e-06
3.39831e-06
3.56857e-06
3.73016e-06
3.88329e-06
4.01823e-06
4.13516e-06
4.24477e-06
4.34767e-06
4.44339e-06
4.5318e-06
4.57038e-06
4.58513e-06
4.58687e-06
4.57709e-06
4.54893e-06
4.50758e-06
4.4506e-06
4.37832e-06
4.29011e-06
4.18741e-06
4.07049e-06
3.94046e-06
3.79482e-06
3.64351e-06
3.47757e-06
3.28984e-06
3.14067e-06
2.91703e-06
2.55249e-06
1.77347e-06
6.08631e-09
2.23582e-08
4.31106e-08
6.87343e-08
9.89406e-08
1.35999e-07
1.83013e-07
2.4607e-07
3.33245e-07
4.56543e-07
6.23497e-07
8.1927e-07
1.02789e-06
1.21801e-06
1.41019e-06
1.60059e-06
1.78894e-06
1.97571e-06
2.15947e-06
2.34022e-06
2.51515e-06
2.68296e-06
2.84218e-06
2.99364e-06
3.10878e-06
3.21211e-06
3.30891e-06
3.40009e-06
3.45975e-06
3.5033e-06
3.53795e-06
3.56171e-06
3.57296e-06
3.57269e-06
3.55513e-06
3.52831e-06
3.48615e-06
3.42939e-06
3.36086e-06
3.27982e-06
3.18749e-06
3.08407e-06
2.97036e-06
2.85014e-06
2.72331e-06
2.58816e-06
2.47723e-06
2.29823e-06
2.03462e-06
1.43504e-06
4.09308e-09
1.44288e-08
2.69574e-08
4.16378e-08
5.86095e-08
7.81265e-08
9.94429e-08
1.25202e-07
1.56497e-07
1.96126e-07
2.4561e-07
3.03477e-07
3.79616e-07
4.75916e-07
5.92196e-07
7.25733e-07
8.72097e-07
1.02671e-06
1.18666e-06
1.34458e-06
1.5007e-06
1.65158e-06
1.79564e-06
1.90575e-06
2.00322e-06
2.09302e-06
2.1744e-06
2.24812e-06
2.31375e-06
2.37022e-06
2.41965e-06
2.459e-06
2.4869e-06
2.5044e-06
2.50818e-06
2.50163e-06
2.48129e-06
2.45186e-06
2.41192e-06
2.35986e-06
2.29969e-06
2.23037e-06
2.15534e-06
2.07438e-06
1.99286e-06
1.90942e-06
1.83605e-06
1.7192e-06
1.54424e-06
1.11384e-06
2.79072e-09
9.56865e-09
1.7539e-08
2.66137e-08
3.67301e-08
4.78957e-08
6.02228e-08
7.35949e-08
8.78577e-08
1.04271e-07
1.20213e-07
1.37135e-07
1.57314e-07
1.82025e-07
2.1371e-07
2.54298e-07
3.06226e-07
3.70793e-07
4.4715e-07
5.33896e-07
6.25152e-07
7.17512e-07
8.07999e-07
8.96115e-07
9.80526e-07
1.06145e-06
1.1371e-06
1.20784e-06
1.2726e-06
1.33318e-06
1.38853e-06
1.43491e-06
1.47528e-06
1.50596e-06
1.52841e-06
1.54255e-06
1.54661e-06
1.54288e-06
1.53073e-06
1.51111e-06
1.48647e-06
1.45417e-06
1.4188e-06
1.38008e-06
1.34305e-06
1.30407e-06
1.27165e-06
1.21991e-06
1.11215e-06
8.13946e-07
1.90274e-09
6.41199e-09
1.16233e-08
1.74724e-08
2.3888e-08
3.08115e-08
3.82102e-08
4.6089e-08
5.44951e-08
6.27301e-08
6.91428e-08
7.55536e-08
8.20374e-08
8.8803e-08
9.65677e-08
1.05123e-07
1.16387e-07
1.29935e-07
1.48808e-07
1.72246e-07
2.00269e-07
2.33103e-07
2.69758e-07
3.10115e-07
3.53989e-07
3.99366e-07
4.45461e-07
4.93285e-07
5.3878e-07
5.83495e-07
6.27379e-07
6.67464e-07
7.03852e-07
7.36651e-07
7.65431e-07
7.88639e-07
8.07782e-07
8.21911e-07
8.30783e-07
8.35005e-07
8.36309e-07
8.3397e-07
8.31253e-07
8.27712e-07
8.25213e-07
8.22158e-07
8.26157e-07
8.14825e-07
7.47853e-07
5.48588e-07
1.28361e-09
4.28379e-09
7.72356e-09
1.15658e-08
1.57624e-08
2.02615e-08
2.50148e-08
2.99815e-08
3.48893e-08
3.89649e-08
4.27168e-08
4.60742e-08
4.88312e-08
5.10884e-08
5.3014e-08
5.45747e-08
5.57561e-08
5.87143e-08
6.27024e-08
6.68009e-08
7.21992e-08
7.7872e-08
8.50652e-08
9.28762e-08
1.03001e-07
1.14874e-07
1.28468e-07
1.44092e-07
1.61193e-07
1.80137e-07
2.00618e-07
2.22662e-07
2.44313e-07
2.65261e-07
2.88111e-07
3.09711e-07
3.30261e-07
3.4899e-07
3.6568e-07
3.81859e-07
3.96801e-07
4.10696e-07
4.25283e-07
4.40707e-07
4.57742e-07
4.75762e-07
4.97444e-07
5.01726e-07
4.6049e-07
3.28095e-07
8.46905e-10
2.81599e-09
5.07309e-09
7.60074e-09
1.03718e-08
1.33513e-08
1.65006e-08
1.94517e-08
2.21839e-08
2.4698e-08
2.6922e-08
2.87885e-08
3.02417e-08
3.123e-08
3.17069e-08
3.16314e-08
3.16183e-08
3.22316e-08
3.25727e-08
3.26295e-08
3.23584e-08
3.22029e-08
3.18403e-08
3.11345e-08
3.04698e-08
3.00456e-08
2.93845e-08
2.97371e-08
3.12217e-08
3.67897e-08
4.27596e-08
5.07409e-08
5.90869e-08
6.90267e-08
7.91484e-08
9.04127e-08
1.01464e-07
1.14693e-07
1.27483e-07
1.40363e-07
1.53677e-07
1.70647e-07
1.89266e-07
2.09419e-07
2.31039e-07
2.53043e-07
2.73931e-07
2.76368e-07
2.53177e-07
1.6639e-07
5.37008e-10
1.7904e-09
3.23901e-09
4.87783e-09
6.64146e-09
8.47175e-09
1.03313e-08
1.21606e-08
1.38962e-08
1.54759e-08
1.68399e-08
1.793e-08
1.86937e-08
1.90826e-08
1.9051e-08
1.88068e-08
1.89193e-08
1.87296e-08
1.82121e-08
1.74131e-08
1.62413e-08
1.46583e-08
1.26326e-08
1.0138e-08
7.21116e-09
7.64026e-09
8.25199e-09
8.9117e-09
9.66142e-09
1.09591e-08
1.25742e-08
1.44777e-08
1.72261e-08
2.02939e-08
2.40299e-08
2.84727e-08
3.32048e-08
3.90812e-08
4.5338e-08
5.17212e-08
5.89082e-08
6.62757e-08
7.35265e-08
8.87145e-08
1.05831e-07
1.21756e-07
1.32106e-07
1.33894e-07
1.17096e-07
6.51423e-08
3.06193e-10
1.03217e-09
1.87924e-09
2.83768e-09
3.88677e-09
4.99672e-09
6.13084e-09
7.24746e-09
8.30223e-09
9.24913e-09
1.00429e-08
1.06395e-08
1.0995e-08
1.10682e-08
1.11167e-08
1.11865e-08
1.10216e-08
1.05959e-08
9.88089e-09
8.84552e-09
7.45132e-09
5.65733e-09
3.41945e-09
3.33981e-09
3.32249e-09
3.27659e-09
3.22243e-09
3.18403e-09
3.19303e-09
3.38825e-09
3.8132e-09
4.42845e-09
5.24839e-09
6.41115e-09
7.91514e-09
9.66409e-09
1.16483e-08
1.40793e-08
1.68015e-08
1.96784e-08
2.26746e-08
2.56621e-08
2.84707e-08
3.20619e-08
4.2061e-08
5.01902e-08
5.61069e-08
5.41067e-08
4.03467e-08
2.00799e-08
1.43473e-10
5.07892e-10
9.5363e-10
1.47201e-09
2.04738e-09
2.65876e-09
3.28188e-09
3.88961e-09
4.45258e-09
4.94009e-09
5.32028e-09
5.56206e-09
5.77984e-09
5.97615e-09
6.03264e-09
5.9285e-09
5.64167e-09
5.14721e-09
4.41725e-09
3.42095e-09
2.12671e-09
1.76771e-09
1.66165e-09
1.52393e-09
1.35783e-09
1.17062e-09
9.85534e-10
8.44985e-10
7.31705e-10
6.82421e-10
7.4074e-10
9.26333e-10
1.24193e-09
1.72571e-09
2.39007e-09
3.2079e-09
4.16578e-09
5.23734e-09
6.38881e-09
7.5757e-09
8.74663e-09
9.78284e-09
1.05739e-08
1.09485e-08
1.46973e-08
1.85388e-08
1.9061e-08
1.60704e-08
1.04434e-08
4.94634e-09
3.90659e-11
1.70594e-10
3.57899e-10
5.78452e-10
8.19601e-10
1.06859e-09
1.31355e-09
1.53991e-09
1.77386e-09
2.00114e-09
2.19227e-09
2.33322e-09
2.40947e-09
2.40669e-09
2.30973e-09
2.1007e-09
1.75886e-09
1.26306e-09
8.79322e-10
8.38365e-10
7.74302e-10
6.88754e-10
5.74704e-10
4.36359e-10
2.77983e-10
9.72669e-11
5.29804e-12
5.60047e-12
6.06452e-12
6.72448e-12
7.77044e-12
1.01012e-11
1.26949e-11
1.55075e-11
3.25183e-10
7.28772e-10
1.19811e-09
1.712e-09
2.22592e-09
2.68123e-09
3.07485e-09
3.34546e-09
3.47899e-09
3.33961e-09
3.16328e-09
4.15921e-09
3.90247e-09
2.93745e-09
1.71889e-09
7.80469e-10
1.16939e-12
1.99268e-11
4.30599e-11
5.91195e-11
6.94707e-11
7.07238e-11
6.14665e-11
6.45239e-11
7.64391e-11
8.73617e-11
9.64689e-11
1.02874e-10
1.05703e-10
1.04349e-10
9.85024e-11
8.62373e-11
6.56477e-11
3.55155e-11
1.15856e-12
1.14956e-12
1.1226e-12
1.07713e-12
1.0149e-12
9.41963e-13
8.67576e-13
8.04137e-13
7.69013e-13
7.77817e-13
8.38448e-13
9.58953e-13
1.1464e-12
1.39585e-12
1.69653e-12
2.03735e-12
2.40253e-12
2.77034e-12
3.11502e-12
3.40857e-12
3.61848e-12
3.71534e-12
3.67851e-12
1.11721e-10
2.06736e-10
2.5131e-10
2.50911e-10
2.16073e-10
1.58158e-10
1.01949e-10
5.35209e-11
3.08648e-11
)
;

boundaryField
{
    AXIS
    {
        type            empty;
    }
    OUTLET
    {
        type            calculated;
        value           nonuniform List<scalar> 
25
(
4.96605e-06
4.91438e-06
4.80205e-06
4.63885e-06
4.43582e-06
4.20604e-06
3.95924e-06
3.69651e-06
3.38126e-06
3.07173e-06
2.76517e-06
2.44812e-06
2.11394e-06
1.77347e-06
1.43504e-06
1.11384e-06
8.13946e-07
5.48588e-07
3.28095e-07
1.6639e-07
6.51423e-08
2.00799e-08
4.94634e-09
7.80469e-10
3.08648e-11
)
;
    }
    COFLOW
    {
        type            calculated;
        value           uniform 0;
    }
    PILOT
    {
        type            calculated;
        value           uniform 3.47094e-18;
    }
    FUEL
    {
        type            calculated;
        value           uniform 0;
    }
    WALL
    {
        type            calculated;
        value           nonuniform List<scalar> 
50
(
1.16939e-12
1.99268e-11
4.30599e-11
5.91195e-11
6.94707e-11
7.07238e-11
6.14665e-11
6.45239e-11
7.64391e-11
8.73617e-11
9.64689e-11
1.02874e-10
1.05703e-10
1.04349e-10
9.85024e-11
8.62373e-11
6.56477e-11
3.55155e-11
1.15856e-12
1.14956e-12
1.1226e-12
1.07713e-12
1.0149e-12
9.41963e-13
8.67576e-13
8.04137e-13
7.69013e-13
7.77817e-13
8.38448e-13
9.58953e-13
1.1464e-12
1.39585e-12
1.69653e-12
2.03735e-12
2.40253e-12
2.77034e-12
3.11502e-12
3.40857e-12
3.61848e-12
3.71534e-12
3.67851e-12
1.11721e-10
2.06736e-10
2.5131e-10
2.50911e-10
2.16073e-10
1.58158e-10
1.01949e-10
5.35209e-11
3.08648e-11
)
;
    }
    front
    {
        type            wedge;
    }
    back
    {
        type            wedge;
    }
}


// ************************************************************************* //
