/*--------------------------------*- C++ -*----------------------------------*\
| =========                 |                                                 |
| \\      /  F ield         | OpenFOAM: The Open Source CFD Toolbox           |
|  \\    /   O peration     | Version:  2.4.x                                 |
|   \\  /    A nd           | Web:      www.OpenFOAM.org                      |
|    \\/     M anipulation  |                                                 |
\*---------------------------------------------------------------------------*/
FoamFile
{
    version     2.0;
    format      ascii;
    class       volScalarField;
    location    "0.1";
    object      HCN;
}
// * * * * * * * * * * * * * * * * * * * * * * * * * * * * * * * * * * * * * //

dimensions      [0 0 0 0 0 0 0];

internalField   nonuniform List<scalar> 
1250
(
3.63938e-07
1.32611e-06
2.30358e-06
3.21585e-06
4.09928e-06
4.95579e-06
5.79757e-06
6.63199e-06
7.5267e-06
8.75579e-06
1.00614e-05
1.14349e-05
1.28844e-05
1.43753e-05
1.5872e-05
1.74131e-05
1.89363e-05
2.04495e-05
2.19659e-05
2.34962e-05
2.50176e-05
2.65387e-05
2.80349e-05
2.94217e-05
3.10939e-05
3.29475e-05
3.48038e-05
3.66143e-05
3.84085e-05
4.01266e-05
4.1785e-05
4.33465e-05
4.48055e-05
4.61679e-05
4.74631e-05
4.86375e-05
4.96778e-05
5.05869e-05
5.129e-05
5.18254e-05
5.20711e-05
5.21389e-05
5.18977e-05
5.12698e-05
5.05348e-05
4.92846e-05
4.74879e-05
4.54664e-05
4.08375e-05
2.86231e-05
4.25469e-07
1.5004e-06
2.50758e-06
3.43203e-06
4.31034e-06
5.14911e-06
5.96297e-06
6.76585e-06
7.88731e-06
9.14014e-06
1.04591e-05
1.18426e-05
1.33004e-05
1.47775e-05
1.62746e-05
1.78013e-05
1.93102e-05
2.08062e-05
2.23135e-05
2.38231e-05
2.53331e-05
2.68325e-05
2.8308e-05
2.96803e-05
3.11844e-05
3.30332e-05
3.48636e-05
3.66665e-05
3.84349e-05
4.01354e-05
4.17688e-05
4.33056e-05
4.47366e-05
4.608e-05
4.7348e-05
4.84952e-05
4.95122e-05
5.0389e-05
5.10643e-05
5.15631e-05
5.17836e-05
5.18137e-05
5.15524e-05
5.08982e-05
5.01496e-05
4.88776e-05
4.70839e-05
4.50536e-05
4.0429e-05
2.83201e-05
6.20625e-07
1.99055e-06
3.05338e-06
3.97832e-06
4.80543e-06
5.55151e-06
6.39959e-06
7.54499e-06
8.7722e-06
1.00485e-05
1.13951e-05
1.27932e-05
1.42354e-05
1.56941e-05
1.71795e-05
1.86691e-05
2.01376e-05
2.16001e-05
2.30715e-05
2.45449e-05
2.60156e-05
2.7468e-05
2.88991e-05
3.02223e-05
3.15092e-05
3.31994e-05
3.49903e-05
3.6771e-05
3.84907e-05
4.01555e-05
4.17395e-05
4.32241e-05
4.45905e-05
4.58919e-05
4.70955e-05
4.81805e-05
4.91482e-05
4.9948e-05
5.05704e-05
5.09857e-05
5.11679e-05
5.11188e-05
5.08134e-05
5.01037e-05
4.93251e-05
4.80003e-05
4.61811e-05
4.41334e-05
3.9514e-05
2.76594e-05
1.22319e-06
3.09916e-06
4.13849e-06
4.85489e-06
5.61121e-06
6.69288e-06
7.83964e-06
9.04284e-06
1.0297e-05
1.15859e-05
1.29404e-05
1.43094e-05
1.57125e-05
1.71378e-05
1.85638e-05
1.99789e-05
2.13847e-05
2.27879e-05
2.42025e-05
2.56139e-05
2.70105e-05
2.83932e-05
2.973e-05
3.0983e-05
3.21945e-05
3.33783e-05
3.5137e-05
3.68548e-05
3.85213e-05
4.01218e-05
4.16292e-05
4.30291e-05
4.43324e-05
4.55323e-05
4.66525e-05
4.76673e-05
4.85421e-05
4.92556e-05
4.97791e-05
5.01111e-05
5.02019e-05
5.00681e-05
4.96707e-05
4.88968e-05
4.80531e-05
4.66532e-05
4.48419e-05
4.27838e-05
3.81845e-05
2.66954e-05
3.69641e-06
5.79087e-06
5.98929e-06
6.9681e-06
8.00561e-06
9.08637e-06
1.02038e-05
1.13972e-05
1.26097e-05
1.38361e-05
1.51238e-05
1.64237e-05
1.77293e-05
1.90316e-05
2.03468e-05
2.16731e-05
2.29861e-05
2.43129e-05
2.56301e-05
2.69454e-05
2.82324e-05
2.94945e-05
3.07192e-05
3.18625e-05
3.29861e-05
3.40807e-05
3.52227e-05
3.68788e-05
3.84631e-05
3.9966e-05
4.13832e-05
4.2708e-05
4.39064e-05
4.49667e-05
4.59977e-05
4.69029e-05
4.76697e-05
4.82662e-05
4.86814e-05
4.89112e-05
4.88819e-05
4.8656e-05
4.81458e-05
4.73062e-05
4.63841e-05
4.49056e-05
4.30815e-05
4.10532e-05
3.64908e-05
2.54893e-05
1.842e-05
1.19807e-05
1.00845e-05
9.98828e-06
1.04803e-05
1.12456e-05
1.22424e-05
1.33995e-05
1.46035e-05
1.58423e-05
1.7183e-05
1.85948e-05
2.00543e-05
2.12808e-05
2.24619e-05
2.36391e-05
2.48402e-05
2.60345e-05
2.72254e-05
2.84065e-05
2.95456e-05
3.06546e-05
3.17295e-05
3.27641e-05
3.37713e-05
3.4758e-05
3.56948e-05
3.6751e-05
3.82457e-05
3.96677e-05
4.09664e-05
4.21572e-05
4.32399e-05
4.41987e-05
4.50474e-05
4.58494e-05
4.64818e-05
4.69684e-05
4.7255e-05
4.73526e-05
4.72083e-05
4.68658e-05
4.62549e-05
4.53324e-05
4.43404e-05
4.27824e-05
4.09835e-05
3.8964e-05
3.45158e-05
2.4117e-05
2.80138e-05
1.60649e-05
1.24826e-05
1.1839e-05
1.2093e-05
1.28728e-05
1.39234e-05
1.50966e-05
1.63462e-05
1.76459e-05
1.9025e-05
2.04371e-05
2.18581e-05
2.32855e-05
2.46666e-05
2.56739e-05
2.67244e-05
2.77653e-05
2.87951e-05
2.98094e-05
3.07729e-05
3.17224e-05
3.26555e-05
3.3541e-05
3.44157e-05
3.52675e-05
3.60786e-05
3.68405e-05
3.78057e-05
3.90953e-05
4.02811e-05
4.13587e-05
4.23169e-05
4.31506e-05
4.38261e-05
4.44388e-05
4.49627e-05
4.53137e-05
4.54864e-05
4.54532e-05
4.51938e-05
4.47368e-05
4.40105e-05
4.30276e-05
4.19618e-05
4.03513e-05
3.85887e-05
3.66092e-05
3.23519e-05
2.26329e-05
1.70366e-05
1.67128e-05
1.31072e-05
1.26379e-05
1.29971e-05
1.39453e-05
1.5144e-05
1.64278e-05
1.7752e-05
1.91379e-05
2.05405e-05
2.1942e-05
2.33329e-05
2.46957e-05
2.60293e-05
2.73869e-05
2.82926e-05
2.91748e-05
3.00454e-05
3.08949e-05
3.17219e-05
3.25189e-05
3.32847e-05
3.40211e-05
3.47728e-05
3.54759e-05
3.61447e-05
3.67675e-05
3.73341e-05
3.82371e-05
3.92913e-05
4.02323e-05
4.10626e-05
4.17741e-05
4.23284e-05
4.27436e-05
4.31019e-05
4.33248e-05
4.33615e-05
4.32082e-05
4.28346e-05
4.22824e-05
4.14711e-05
4.04376e-05
3.93277e-05
3.76662e-05
3.59901e-05
3.40583e-05
3.00734e-05
2.10636e-05
7.09521e-06
1.3386e-05
1.18734e-05
1.21932e-05
1.31474e-05
1.42575e-05
1.56548e-05
1.70879e-05
1.85313e-05
2.00061e-05
2.14484e-05
2.28568e-05
2.42305e-05
2.55547e-05
2.68352e-05
2.81593e-05
2.93511e-05
3.0101e-05
3.08313e-05
3.15394e-05
3.22092e-05
3.28503e-05
3.3465e-05
3.40386e-05
3.46687e-05
3.52427e-05
3.57807e-05
3.62559e-05
3.66929e-05
3.70635e-05
3.7955e-05
3.87776e-05
3.94735e-05
4.00537e-05
4.04826e-05
4.07795e-05
4.09417e-05
4.10152e-05
4.09325e-05
4.06708e-05
4.02081e-05
3.95621e-05
3.86819e-05
3.76215e-05
3.64627e-05
3.48177e-05
3.3241e-05
3.14057e-05
2.77582e-05
1.92719e-05
1.70715e-06
5.95904e-06
8.39586e-06
1.03106e-05
1.20043e-05
1.36398e-05
1.523e-05
1.68592e-05
1.85081e-05
2.02173e-05
2.18611e-05
2.34313e-05
2.49108e-05
2.631e-05
2.76022e-05
2.87722e-05
2.99277e-05
3.05815e-05
3.11526e-05
3.16964e-05
3.22074e-05
3.26784e-05
3.31125e-05
3.35064e-05
3.3985e-05
3.44473e-05
3.48706e-05
3.52293e-05
3.55447e-05
3.58029e-05
3.62418e-05
3.69368e-05
3.75182e-05
3.7975e-05
3.8307e-05
3.84904e-05
3.85437e-05
3.84489e-05
3.82488e-05
3.78951e-05
3.73583e-05
3.66448e-05
3.5719e-05
3.46644e-05
3.34889e-05
3.18922e-05
3.04494e-05
2.87306e-05
2.54714e-05
1.75193e-05
2.60337e-07
2.18138e-06
3.81347e-06
6.7756e-06
9.45245e-06
1.16199e-05
1.36129e-05
1.55109e-05
1.71798e-05
1.88915e-05
2.0663e-05
2.23963e-05
2.40096e-05
2.55414e-05
2.69521e-05
2.81491e-05
2.92797e-05
2.98961e-05
3.03771e-05
3.08222e-05
3.12339e-05
3.16035e-05
3.19433e-05
3.22439e-05
3.25989e-05
3.29682e-05
3.32832e-05
3.35535e-05
3.37789e-05
3.39506e-05
3.4092e-05
3.46792e-05
3.51388e-05
3.54946e-05
3.57161e-05
3.58162e-05
3.57782e-05
3.56178e-05
3.53009e-05
3.48611e-05
3.42671e-05
3.3517e-05
3.25798e-05
3.15459e-05
3.03838e-05
2.88806e-05
2.7591e-05
2.60198e-05
2.299e-05
1.57893e-05
1.78269e-07
8.9239e-07
1.83418e-06
3.06914e-06
5.12597e-06
7.98158e-06
1.05622e-05
1.25627e-05
1.4481e-05
1.63107e-05
1.79856e-05
1.96429e-05
2.11971e-05
2.26668e-05
2.40305e-05
2.54425e-05
2.66128e-05
2.73565e-05
2.79525e-05
2.8479e-05
2.89385e-05
2.93377e-05
2.96898e-05
2.99918e-05
3.0281e-05
3.05829e-05
3.08331e-05
3.10366e-05
3.1194e-05
3.13132e-05
3.1388e-05
3.18013e-05
3.21616e-05
3.24209e-05
3.25581e-05
3.25762e-05
3.24777e-05
3.22449e-05
3.18957e-05
3.14202e-05
3.08135e-05
3.00541e-05
2.9136e-05
2.81469e-05
2.70295e-05
2.56738e-05
2.4569e-05
2.31781e-05
2.03227e-05
1.40075e-05
1.03335e-07
4.40749e-07
8.95785e-07
1.52462e-06
2.44019e-06
3.64971e-06
5.42847e-06
7.59902e-06
9.84547e-06
1.1978e-05
1.39387e-05
1.57164e-05
1.73813e-05
1.88388e-05
1.99767e-05
2.1057e-05
2.20211e-05
2.28813e-05
2.3661e-05
2.43634e-05
2.49822e-05
2.55237e-05
2.60012e-05
2.64204e-05
2.67621e-05
2.70334e-05
2.72614e-05
2.74481e-05
2.75886e-05
2.76993e-05
2.77808e-05
2.81565e-05
2.84361e-05
2.86211e-05
2.86912e-05
2.86596e-05
2.85166e-05
2.82598e-05
2.78954e-05
2.74191e-05
2.68389e-05
2.61582e-05
2.53386e-05
2.44311e-05
2.34087e-05
2.22588e-05
2.13517e-05
2.00149e-05
1.74814e-05
1.21355e-05
6.33487e-08
2.46901e-07
4.91979e-07
7.98461e-07
1.22497e-06
1.77511e-06
2.47967e-06
3.3879e-06
4.5277e-06
6.1127e-06
7.81686e-06
9.53569e-06
1.11859e-05
1.25775e-05
1.38753e-05
1.50792e-05
1.61937e-05
1.72117e-05
1.81448e-05
1.89844e-05
1.97375e-05
2.04208e-05
2.10336e-05
2.15756e-05
2.19954e-05
2.22921e-05
2.25479e-05
2.27659e-05
2.29446e-05
2.30884e-05
2.34108e-05
2.37162e-05
2.39394e-05
2.40881e-05
2.41247e-05
2.40768e-05
2.39307e-05
2.3687e-05
2.33483e-05
2.29157e-05
2.23954e-05
2.17901e-05
2.10927e-05
2.03489e-05
1.95107e-05
1.85686e-05
1.77965e-05
1.65766e-05
1.45734e-05
1.02225e-05
4.11861e-08
1.51528e-07
2.92459e-07
4.6535e-07
6.66497e-07
9.07755e-07
1.20354e-06
1.58099e-06
2.06941e-06
2.71256e-06
3.52587e-06
4.42478e-06
5.34779e-06
6.46141e-06
7.5862e-06
8.68647e-06
9.75406e-06
1.07812e-05
1.17621e-05
1.26934e-05
1.35631e-05
1.43578e-05
1.50892e-05
1.57494e-05
1.62098e-05
1.65877e-05
1.69261e-05
1.72227e-05
1.76106e-05
1.79969e-05
1.83337e-05
1.86109e-05
1.88174e-05
1.89561e-05
1.89959e-05
1.89786e-05
1.88707e-05
1.86756e-05
1.84101e-05
1.80677e-05
1.76553e-05
1.71718e-05
1.66266e-05
1.60333e-05
1.53953e-05
1.47113e-05
1.41275e-05
1.31604e-05
1.16954e-05
8.32484e-06
2.76814e-08
9.75881e-08
1.82253e-07
2.8098e-07
3.94051e-07
5.22319e-07
6.59911e-07
8.22387e-07
1.01427e-06
1.24905e-06
1.53385e-06
1.86026e-06
2.27495e-06
2.78037e-06
3.3713e-06
4.03182e-06
4.74123e-06
5.4802e-06
6.24189e-06
6.99397e-06
7.74505e-06
8.48218e-06
9.19771e-06
9.78259e-06
1.03238e-05
1.08377e-05
1.13152e-05
1.1769e-05
1.21845e-05
1.25571e-05
1.28936e-05
1.31767e-05
1.34006e-05
1.35693e-05
1.3664e-05
1.37011e-05
1.36614e-05
1.35694e-05
1.34167e-05
1.31936e-05
1.29215e-05
1.25942e-05
1.22325e-05
1.1832e-05
1.14185e-05
1.09882e-05
1.05973e-05
9.95438e-06
8.96333e-06
6.51475e-06
1.88027e-08
6.44377e-08
1.17989e-07
1.78675e-07
2.45799e-07
3.19064e-07
3.98801e-07
4.83809e-07
5.72582e-07
6.72456e-07
7.70671e-07
8.74718e-07
9.96369e-07
1.14212e-06
1.32531e-06
1.55531e-06
1.84429e-06
2.19706e-06
2.60701e-06
3.0661e-06
3.54566e-06
4.03643e-06
4.51616e-06
4.9858e-06
5.43895e-06
5.87878e-06
6.29489e-06
6.68923e-06
7.05582e-06
7.40629e-06
7.72878e-06
8.00495e-06
8.25342e-06
8.45073e-06
8.60402e-06
8.71242e-06
8.7661e-06
8.77686e-06
8.74061e-06
8.66223e-06
8.55422e-06
8.40202e-06
8.23056e-06
8.03788e-06
7.84833e-06
7.64107e-06
7.46691e-06
7.17338e-06
6.53682e-06
4.81216e-06
1.27434e-08
4.29145e-08
7.76922e-08
1.16543e-07
1.58851e-07
2.04055e-07
2.51743e-07
3.01732e-07
3.54089e-07
4.0509e-07
4.45864e-07
4.86251e-07
5.26616e-07
5.68152e-07
6.15192e-07
6.66062e-07
7.32402e-07
8.10987e-07
9.22987e-07
1.06237e-06
1.22777e-06
1.42011e-06
1.63306e-06
1.86616e-06
2.11891e-06
2.37922e-06
2.64355e-06
2.91929e-06
3.18154e-06
3.44001e-06
3.69462e-06
3.92821e-06
4.14135e-06
4.33538e-06
4.50777e-06
4.64939e-06
4.76865e-06
4.85952e-06
4.92107e-06
4.95615e-06
4.97417e-06
4.97072e-06
4.96392e-06
4.95174e-06
4.94269e-06
4.92703e-06
4.9472e-06
4.87006e-06
4.46014e-06
3.28852e-06
8.53044e-09
2.84482e-08
5.12214e-08
7.65414e-08
1.04008e-07
1.33184e-07
1.63639e-07
1.94992e-07
2.25726e-07
2.51869e-07
2.75825e-07
2.9712e-07
3.14417e-07
3.28315e-07
3.39854e-07
3.48786e-07
3.54977e-07
3.73086e-07
3.98278e-07
4.24143e-07
4.58137e-07
4.93798e-07
5.38943e-07
5.87853e-07
6.51141e-07
7.25168e-07
8.09692e-07
9.06473e-07
1.01191e-06
1.12837e-06
1.25396e-06
1.38855e-06
1.52036e-06
1.64766e-06
1.78708e-06
1.91914e-06
2.04462e-06
2.15903e-06
2.26118e-06
2.36004e-06
2.45125e-06
2.53575e-06
2.62358e-06
2.71508e-06
2.81448e-06
2.91777e-06
3.03809e-06
3.05065e-06
2.79233e-06
2.00227e-06
5.57562e-09
1.8526e-08
3.33295e-08
4.98322e-08
6.78057e-08
8.69619e-08
1.06981e-07
1.25905e-07
1.43497e-07
1.59636e-07
1.73849e-07
1.85694e-07
1.94804e-07
2.00838e-07
2.03488e-07
2.02463e-07
2.02e-07
2.06106e-07
2.08537e-07
2.09226e-07
2.07904e-07
2.07433e-07
2.05789e-07
2.02117e-07
1.98908e-07
1.97497e-07
1.94782e-07
1.98817e-07
2.0996e-07
2.46364e-07
2.85291e-07
3.37023e-07
3.9095e-07
4.5478e-07
5.19551e-07
5.91231e-07
6.61345e-07
7.44863e-07
8.25379e-07
9.06128e-07
9.89231e-07
1.09305e-06
1.20595e-06
1.32687e-06
1.45536e-06
1.58453e-06
1.70436e-06
1.71129e-06
1.56441e-06
1.03624e-06
3.49632e-09
1.16485e-08
2.10442e-08
3.16251e-08
4.30134e-08
5.48485e-08
6.68591e-08
7.8656e-08
8.98252e-08
9.99588e-08
1.08667e-07
1.15568e-07
1.2032e-07
1.22606e-07
1.22126e-07
1.2034e-07
1.21214e-07
1.20194e-07
1.17121e-07
1.12292e-07
1.05149e-07
9.54583e-08
8.30308e-08
6.77119e-08
4.97431e-08
5.26318e-08
5.67462e-08
6.11926e-08
6.62528e-08
7.49785e-08
8.58435e-08
9.86424e-08
1.17031e-07
1.37521e-07
1.62373e-07
1.91808e-07
2.2307e-07
2.61673e-07
3.02625e-07
3.4426e-07
3.90881e-07
4.38465e-07
4.85119e-07
5.78278e-07
6.82092e-07
7.77443e-07
8.37348e-07
8.4392e-07
7.37113e-07
4.13518e-07
1.98242e-09
6.68217e-09
1.21642e-08
1.83642e-08
2.51461e-08
3.23148e-08
3.96306e-08
4.68211e-08
5.35967e-08
5.96568e-08
6.4706e-08
6.8457e-08
7.06221e-08
7.09333e-08
7.11945e-08
7.1741e-08
7.08105e-08
6.82403e-08
6.38512e-08
5.74487e-08
4.87922e-08
3.76259e-08
2.36757e-08
2.31694e-08
2.30309e-08
2.26989e-08
2.23142e-08
2.20422e-08
2.20999e-08
2.34306e-08
2.63343e-08
3.05427e-08
3.61468e-08
4.40679e-08
5.42842e-08
6.61404e-08
7.95628e-08
9.59409e-08
1.14226e-07
1.33505e-07
1.53535e-07
1.7346e-07
1.92159e-07
2.15305e-07
2.76692e-07
3.25805e-07
3.60535e-07
3.45966e-07
2.58079e-07
1.28931e-07
9.27634e-10
3.28346e-09
6.16382e-09
9.5115e-09
1.32239e-08
1.71639e-08
2.11728e-08
2.50735e-08
2.86743e-08
3.17748e-08
3.41671e-08
3.56481e-08
3.70259e-08
3.83315e-08
3.87567e-08
3.817e-08
3.64325e-08
3.33869e-08
2.88578e-08
2.26511e-08
1.45685e-08
1.22835e-08
1.15492e-08
1.05953e-08
9.44481e-09
8.14819e-09
6.86656e-09
5.89143e-09
5.10966e-09
4.77379e-09
5.18316e-09
6.47119e-09
8.65439e-09
1.19927e-08
1.65644e-08
2.21797e-08
2.87444e-08
3.6077e-08
4.3946e-08
5.20485e-08
6.00366e-08
6.71025e-08
7.25028e-08
7.50844e-08
9.81376e-08
1.21329e-07
1.23652e-07
1.03827e-07
6.73912e-08
3.19317e-08
2.52005e-10
1.1002e-09
2.30689e-09
3.72574e-09
5.2741e-09
6.86859e-09
8.43141e-09
9.86746e-09
1.13656e-08
1.28345e-08
1.40774e-08
1.50059e-08
1.55278e-08
1.55525e-08
1.49841e-08
1.3709e-08
1.15963e-08
8.51248e-09
6.11152e-09
5.82804e-09
5.38428e-09
4.79149e-09
4.00096e-09
3.04195e-09
1.9441e-09
6.91459e-10
5.43326e-11
5.74327e-11
6.21895e-11
6.89539e-11
7.96095e-11
1.02981e-10
1.29005e-10
1.57235e-10
2.30374e-09
5.09578e-09
8.33868e-09
1.18866e-08
1.54332e-08
1.8575e-08
2.12931e-08
2.31671e-08
2.41024e-08
2.31637e-08
2.18402e-08
2.7711e-08
2.566e-08
1.91932e-08
1.12041e-08
5.08155e-09
7.50919e-12
1.27664e-10
2.76926e-10
3.82918e-10
4.54368e-10
4.69906e-10
4.20691e-10
4.48591e-10
5.3149e-10
6.0752e-10
6.70973e-10
7.15689e-10
7.35607e-10
7.26514e-10
6.86241e-10
6.01433e-10
4.58858e-10
2.50054e-10
1.18827e-11
1.17905e-11
1.1514e-11
1.10477e-11
1.04095e-11
9.66152e-12
8.89858e-12
8.24791e-12
7.88762e-12
7.97784e-12
8.59958e-12
9.83534e-12
1.17576e-11
1.43155e-11
1.73985e-11
2.08929e-11
2.46367e-11
2.84073e-11
3.19406e-11
3.49496e-11
3.71011e-11
3.8094e-11
3.77169e-11
7.85936e-10
1.44345e-09
1.75105e-09
1.74669e-09
1.50349e-09
1.10029e-09
7.09191e-10
3.72366e-10
2.14609e-10
)
;

boundaryField
{
    AXIS
    {
        type            empty;
    }
    OUTLET
    {
        type            calculated;
        value           nonuniform List<scalar> 
25
(
2.86231e-05
2.83201e-05
2.76594e-05
2.66954e-05
2.54893e-05
2.4117e-05
2.26329e-05
2.10636e-05
1.92719e-05
1.75193e-05
1.57893e-05
1.40075e-05
1.21355e-05
1.02225e-05
8.32484e-06
6.51475e-06
4.81216e-06
3.28852e-06
2.00227e-06
1.03624e-06
4.13518e-07
1.28931e-07
3.19317e-08
5.08155e-09
2.14609e-10
)
;
    }
    COFLOW
    {
        type            calculated;
        value           uniform 0;
    }
    PILOT
    {
        type            calculated;
        value           uniform 3.30894e-12;
    }
    FUEL
    {
        type            calculated;
        value           uniform 0;
    }
    WALL
    {
        type            calculated;
        value           nonuniform List<scalar> 
50
(
7.50919e-12
1.27664e-10
2.76926e-10
3.82918e-10
4.54368e-10
4.69906e-10
4.20691e-10
4.48591e-10
5.3149e-10
6.0752e-10
6.70973e-10
7.15689e-10
7.35607e-10
7.26514e-10
6.86241e-10
6.01433e-10
4.58858e-10
2.50054e-10
1.18827e-11
1.17905e-11
1.1514e-11
1.10477e-11
1.04095e-11
9.66152e-12
8.89858e-12
8.24791e-12
7.88762e-12
7.97784e-12
8.59958e-12
9.83534e-12
1.17576e-11
1.43155e-11
1.73985e-11
2.08929e-11
2.46367e-11
2.84073e-11
3.19406e-11
3.49496e-11
3.71011e-11
3.8094e-11
3.77169e-11
7.85936e-10
1.44345e-09
1.75105e-09
1.74669e-09
1.50349e-09
1.10029e-09
7.09191e-10
3.72366e-10
2.14609e-10
)
;
    }
    front
    {
        type            wedge;
    }
    back
    {
        type            wedge;
    }
}


// ************************************************************************* //
