/*--------------------------------*- C++ -*----------------------------------*\
| =========                 |                                                 |
| \\      /  F ield         | OpenFOAM: The Open Source CFD Toolbox           |
|  \\    /   O peration     | Version:  2.4.x                                 |
|   \\  /    A nd           | Web:      www.OpenFOAM.org                      |
|    \\/     M anipulation  |                                                 |
\*---------------------------------------------------------------------------*/
FoamFile
{
    version     2.0;
    format      ascii;
    class       volScalarField;
    location    "0.1";
    object      HCNN;
}
// * * * * * * * * * * * * * * * * * * * * * * * * * * * * * * * * * * * * * //

dimensions      [0 0 0 0 0 0 0];

internalField   nonuniform List<scalar> 
1250
(
3.58144e-14
1.52323e-13
3.55524e-13
7.33018e-13
1.42023e-12
2.51767e-12
4.06952e-12
6.06031e-12
8.4616e-12
1.17321e-11
1.51308e-11
1.81001e-11
2.10114e-11
2.36493e-11
2.61784e-11
2.84166e-11
2.97979e-11
3.02745e-11
3.06209e-11
3.08404e-11
3.08604e-11
3.04712e-11
2.97088e-11
2.89808e-11
2.91713e-11
2.94036e-11
2.94053e-11
2.90597e-11
2.90858e-11
2.94275e-11
2.98969e-11
3.03351e-11
3.05301e-11
3.04388e-11
3.05612e-11
3.09073e-11
3.1326e-11
3.18555e-11
3.24767e-11
3.31582e-11
3.39194e-11
3.46845e-11
3.54995e-11
3.61377e-11
3.68275e-11
3.74937e-11
3.74202e-11
3.79235e-11
3.91027e-11
3.53776e-11
4.08712e-14
1.76516e-13
4.19903e-13
8.97274e-13
1.76695e-12
3.11279e-12
4.95482e-12
7.20146e-12
1.03671e-11
1.39013e-11
1.74319e-11
2.05125e-11
2.34019e-11
2.60789e-11
2.85853e-11
3.06668e-11
3.18948e-11
3.2278e-11
3.25014e-11
3.26054e-11
3.2453e-11
3.17703e-11
3.12028e-11
3.06936e-11
3.05096e-11
3.06473e-11
3.03501e-11
3.00308e-11
3.00907e-11
3.04317e-11
3.08521e-11
3.123e-11
3.14799e-11
3.13623e-11
3.14638e-11
3.17613e-11
3.2141e-11
3.26302e-11
3.32089e-11
3.38502e-11
3.45721e-11
3.52882e-11
3.60518e-11
3.6638e-11
3.72805e-11
3.78949e-11
3.77369e-11
3.81805e-11
3.92508e-11
3.52379e-11
5.64851e-14
2.53874e-13
6.56994e-13
1.51669e-12
3.00394e-12
5.08433e-12
7.92565e-12
1.1696e-11
1.56833e-11
1.97305e-11
2.34355e-11
2.65606e-11
2.94275e-11
3.20474e-11
3.42247e-11
3.6043e-11
3.68613e-11
3.69343e-11
3.6871e-11
3.65973e-11
3.59045e-11
3.51479e-11
3.50242e-11
3.45461e-11
3.37362e-11
3.31799e-11
3.24853e-11
3.22213e-11
3.23458e-11
3.2663e-11
3.29782e-11
3.3203e-11
3.35034e-11
3.33842e-11
3.34472e-11
3.36266e-11
3.39126e-11
3.43149e-11
3.47881e-11
3.5348e-11
3.59865e-11
3.65909e-11
3.72435e-11
3.77127e-11
3.82566e-11
3.87454e-11
3.83554e-11
3.86459e-11
3.94633e-11
3.49289e-11
1.0393e-13
5.29507e-13
1.68796e-12
3.97916e-12
7.56112e-12
1.24908e-11
1.75801e-11
2.26555e-11
2.72921e-11
3.16734e-11
3.51816e-11
3.80048e-11
4.03871e-11
4.2396e-11
4.39992e-11
4.52228e-11
4.52255e-11
4.46897e-11
4.39084e-11
4.27698e-11
4.19237e-11
4.16421e-11
4.16742e-11
4.06499e-11
3.86943e-11
3.65638e-11
3.59816e-11
3.58578e-11
3.5984e-11
3.6119e-11
3.61425e-11
3.62472e-11
3.6446e-11
3.65069e-11
3.63916e-11
3.64046e-11
3.65421e-11
3.67843e-11
3.71152e-11
3.75533e-11
3.80331e-11
3.84615e-11
3.89511e-11
3.92308e-11
3.96061e-11
3.98566e-11
3.91928e-11
3.92793e-11
3.9738e-11
3.44244e-11
3.67877e-13
2.81981e-12
9.30388e-12
1.89365e-11
2.76886e-11
3.5272e-11
4.10603e-11
4.63387e-11
5.03947e-11
5.38526e-11
5.57536e-11
5.71552e-11
5.8159e-11
5.88279e-11
5.91454e-11
5.91749e-11
5.76795e-11
5.58305e-11
5.42162e-11
5.30253e-11
5.22489e-11
5.1586e-11
5.04913e-11
4.76641e-11
4.48654e-11
4.2709e-11
4.13285e-11
4.1152e-11
4.088e-11
4.05986e-11
4.04255e-11
4.03787e-11
4.04821e-11
4.05262e-11
4.01904e-11
3.99766e-11
3.98785e-11
3.99213e-11
4.0083e-11
4.03289e-11
4.05611e-11
4.0764e-11
4.10465e-11
4.10679e-11
4.12054e-11
4.11104e-11
4.00891e-11
3.99321e-11
3.98986e-11
3.37197e-11
2.44459e-11
4.99293e-11
6.47724e-11
7.27006e-11
7.80867e-11
8.21005e-11
8.39211e-11
8.53904e-11
8.63379e-11
8.68622e-11
8.59961e-11
8.52159e-11
8.44394e-11
8.26444e-11
8.0648e-11
7.8603e-11
7.51755e-11
7.23852e-11
7.00555e-11
6.79021e-11
6.5283e-11
6.25143e-11
5.97601e-11
5.67683e-11
5.42019e-11
5.19186e-11
4.94927e-11
4.74905e-11
4.67686e-11
4.62143e-11
4.59236e-11
4.56056e-11
4.52975e-11
4.50008e-11
4.46019e-11
4.40715e-11
4.37441e-11
4.35824e-11
4.34817e-11
4.34253e-11
4.33666e-11
4.33225e-11
4.33263e-11
4.29964e-11
4.28063e-11
4.23056e-11
4.09418e-11
4.04702e-11
3.98143e-11
3.2806e-11
1.42189e-10
1.83983e-10
1.76428e-10
1.66242e-10
1.58538e-10
1.54909e-10
1.48033e-10
1.42005e-10
1.36655e-10
1.31134e-10
1.25459e-10
1.20519e-10
1.161e-10
1.12197e-10
1.08505e-10
1.03461e-10
9.81498e-11
9.31253e-11
8.83399e-11
8.37673e-11
8.00094e-11
7.66403e-11
7.36464e-11
6.99974e-11
6.60261e-11
6.23743e-11
5.90223e-11
5.60269e-11
5.39676e-11
5.30493e-11
5.21978e-11
5.14238e-11
5.06732e-11
4.99051e-11
4.91772e-11
4.84828e-11
4.78957e-11
4.74042e-11
4.69572e-11
4.66063e-11
4.62471e-11
4.58883e-11
4.54976e-11
4.4711e-11
4.41788e-11
4.32901e-11
4.15291e-11
4.07304e-11
3.94021e-11
3.17498e-11
5.60775e-11
2.00586e-10
2.4066e-10
2.41958e-10
2.33078e-10
2.26235e-10
2.14976e-10
2.03286e-10
1.92102e-10
1.81391e-10
1.71151e-10
1.61802e-10
1.53417e-10
1.45902e-10
1.39241e-10
1.33278e-10
1.25371e-10
1.17872e-10
1.11062e-10
1.04808e-10
9.90162e-11
9.36352e-11
8.86043e-11
8.37221e-11
7.8842e-11
7.42645e-11
7.00577e-11
6.613e-11
6.24601e-11
6.0194e-11
5.88036e-11
5.74796e-11
5.62361e-11
5.50739e-11
5.3931e-11
5.27979e-11
5.18016e-11
5.09781e-11
5.02294e-11
4.95569e-11
4.88168e-11
4.80409e-11
4.71715e-11
4.60344e-11
4.52078e-11
4.37983e-11
4.17053e-11
4.05378e-11
3.85835e-11
3.05801e-11
1.50435e-11
1.05876e-10
1.81041e-10
2.30899e-10
2.52392e-10
2.58563e-10
2.55914e-10
2.46582e-10
2.35518e-10
2.23961e-10
2.11909e-10
2.002e-10
1.89122e-10
1.78744e-10
1.69222e-10
1.60736e-10
1.52356e-10
1.42612e-10
1.33637e-10
1.25311e-10
1.17606e-10
1.10494e-10
1.03883e-10
9.76909e-11
9.18765e-11
8.64247e-11
8.13301e-11
7.64571e-11
7.18312e-11
6.73523e-11
6.52459e-11
6.34002e-11
6.16354e-11
5.99474e-11
5.82849e-11
5.67045e-11
5.51981e-11
5.40109e-11
5.29028e-11
5.18028e-11
5.05952e-11
4.94647e-11
4.8244e-11
4.67143e-11
4.55112e-11
4.36316e-11
4.12801e-11
3.98303e-11
3.73619e-11
2.90755e-11
2.48321e-12
1.97039e-11
6.99356e-11
1.37078e-10
1.92246e-10
2.273e-10
2.45814e-10
2.50908e-10
2.5185e-10
2.47246e-10
2.39613e-10
2.29e-10
2.166e-10
2.04307e-10
1.92547e-10
1.82473e-10
1.73134e-10
1.62747e-10
1.52767e-10
1.43283e-10
1.34297e-10
1.25856e-10
1.17878e-10
1.10347e-10
1.03644e-10
9.73209e-11
9.13162e-11
8.55977e-11
8.0134e-11
7.48257e-11
7.07632e-11
6.84067e-11
6.61645e-11
6.40127e-11
6.19709e-11
5.99241e-11
5.79389e-11
5.59235e-11
5.43856e-11
5.30143e-11
5.15398e-11
5.00282e-11
4.84067e-11
4.65799e-11
4.50622e-11
4.27693e-11
4.03127e-11
3.86079e-11
3.5769e-11
2.7317e-11
1.39358e-13
1.78826e-12
1.01835e-11
4.44857e-11
9.55477e-11
1.45292e-10
1.83478e-10
2.07868e-10
2.23351e-10
2.28866e-10
2.32972e-10
2.2978e-10
2.23971e-10
2.16604e-10
2.0796e-10
1.99451e-10
1.90369e-10
1.79142e-10
1.6801e-10
1.57324e-10
1.47126e-10
1.37462e-10
1.28303e-10
1.1965e-10
1.12175e-10
1.05348e-10
9.87646e-11
9.24391e-11
8.63525e-11
8.04266e-11
7.47892e-11
7.20185e-11
6.92445e-11
6.66022e-11
6.40951e-11
6.17257e-11
5.93956e-11
5.71751e-11
5.49132e-11
5.30598e-11
5.12863e-11
4.94959e-11
4.75714e-11
4.55285e-11
4.37384e-11
4.11175e-11
3.86481e-11
3.68225e-11
3.39886e-11
2.53816e-11
6.46744e-14
3.41391e-13
1.33921e-12
5.5981e-12
2.23052e-11
5.57325e-11
9.40982e-11
1.28522e-10
1.56144e-10
1.74962e-10
1.87094e-10
1.92717e-10
1.95075e-10
1.93756e-10
1.90793e-10
1.88696e-10
1.84024e-10
1.76295e-10
1.67513e-10
1.58432e-10
1.49238e-10
1.40149e-10
1.31319e-10
1.22769e-10
1.15133e-10
1.08343e-10
1.01644e-10
9.5074e-11
8.86654e-11
8.24296e-11
7.63717e-11
7.29946e-11
7.00432e-11
6.72048e-11
6.4458e-11
6.17934e-11
5.92366e-11
5.67118e-11
5.42816e-11
5.19233e-11
4.9675e-11
4.77007e-11
4.55374e-11
4.33392e-11
4.13376e-11
3.85571e-11
3.62234e-11
3.44431e-11
3.15521e-11
2.30112e-11
3.12532e-14
1.32653e-13
3.26105e-13
8.89726e-13
2.75867e-12
8.00566e-12
2.24592e-11
4.49697e-11
7.05912e-11
9.49172e-11
1.15382e-10
1.30525e-10
1.41542e-10
1.47795e-10
1.51197e-10
1.53186e-10
1.52314e-10
1.49673e-10
1.45884e-10
1.40848e-10
1.35029e-10
1.28646e-10
1.22014e-10
1.15234e-10
1.08717e-10
1.02778e-10
9.6758e-11
9.07241e-11
8.47263e-11
7.88207e-11
7.31274e-11
7.02303e-11
6.73998e-11
6.45985e-11
6.18555e-11
5.91926e-11
5.65919e-11
5.40442e-11
5.15651e-11
4.9123e-11
4.67289e-11
4.43965e-11
4.20561e-11
3.98174e-11
3.76883e-11
3.50158e-11
3.30473e-11
3.13405e-11
2.81276e-11
2.01506e-11
1.75398e-14
6.86043e-14
1.44329e-13
2.73456e-13
5.58018e-13
1.23786e-12
2.88555e-12
6.46082e-12
1.33565e-11
2.56016e-11
4.01176e-11
5.48943e-11
6.84136e-11
7.96786e-11
8.87284e-11
9.57924e-11
1.00796e-10
1.03639e-10
1.05025e-10
1.04834e-10
1.03471e-10
1.01086e-10
9.79698e-11
9.41744e-11
8.9969e-11
8.57501e-11
8.13706e-11
7.68329e-11
7.21736e-11
6.74579e-11
6.46476e-11
6.23403e-11
6.00076e-11
5.76755e-11
5.53081e-11
5.29579e-11
5.06212e-11
4.83172e-11
4.60165e-11
4.37687e-11
4.15396e-11
3.93885e-11
3.71709e-11
3.50004e-11
3.2866e-11
3.04256e-11
2.87542e-11
2.70148e-11
2.40821e-11
1.6869e-11
1.1089e-14
4.1071e-14
8.10483e-14
1.36709e-13
2.17074e-13
3.48261e-13
5.86843e-13
1.06143e-12
2.01223e-12
3.81229e-12
6.81837e-12
1.09986e-11
1.60935e-11
2.33268e-11
3.07353e-11
3.78094e-11
4.42572e-11
4.97585e-11
5.42263e-11
5.7809e-11
6.03621e-11
6.16024e-11
6.221e-11
6.17679e-11
6.05944e-11
5.88665e-11
5.68175e-11
5.44388e-11
5.30405e-11
5.18969e-11
5.06557e-11
4.93417e-11
4.79117e-11
4.63868e-11
4.47221e-11
4.30261e-11
4.12556e-11
3.94344e-11
3.75924e-11
3.57418e-11
3.38827e-11
3.20505e-11
3.02024e-11
2.84404e-11
2.66941e-11
2.48767e-11
2.36206e-11
2.18519e-11
1.93672e-11
1.34538e-11
7.46686e-15
2.65395e-14
5.03338e-14
7.99675e-14
1.1776e-13
1.6759e-13
2.33014e-13
3.31116e-13
4.84771e-13
7.40432e-13
1.16308e-12
1.81775e-12
2.83815e-12
4.32788e-12
6.31873e-12
8.76908e-12
1.15695e-11
1.45861e-11
1.7668e-11
2.06456e-11
2.34366e-11
2.59471e-11
2.8153e-11
2.97225e-11
3.09274e-11
3.18615e-11
3.26122e-11
3.31666e-11
3.34728e-11
3.35481e-11
3.34252e-11
3.31534e-11
3.27088e-11
3.2114e-11
3.13531e-11
3.0486e-11
2.94879e-11
2.8422e-11
2.72853e-11
2.60752e-11
2.48376e-11
2.35639e-11
2.22591e-11
2.09705e-11
1.97585e-11
1.85464e-11
1.7592e-11
1.6211e-11
1.44806e-11
1.00289e-11
5.17685e-15
1.78818e-14
3.31675e-14
5.12757e-14
7.27006e-14
9.83105e-14
1.29542e-13
1.67733e-13
2.1471e-13
2.77856e-13
3.53183e-13
4.52641e-13
5.97321e-13
8.09832e-13
1.12194e-12
1.57106e-12
2.19818e-12
3.03942e-12
4.09808e-12
5.35083e-12
6.71364e-12
8.08679e-12
9.46941e-12
1.08087e-11
1.20569e-11
1.32116e-11
1.4257e-11
1.51769e-11
1.59634e-11
1.66176e-11
1.71684e-11
1.75723e-11
1.78376e-11
1.79566e-11
1.79227e-11
1.77645e-11
1.74816e-11
1.71089e-11
1.66473e-11
1.61125e-11
1.5542e-11
1.49073e-11
1.42582e-11
1.35954e-11
1.29921e-11
1.23865e-11
1.18279e-11
1.10581e-11
9.92433e-12
6.83697e-12
3.62503e-15
1.22925e-14
2.25041e-14
3.43193e-14
4.78499e-14
6.32951e-14
8.09748e-14
1.01375e-13
1.25207e-13
1.50984e-13
1.74086e-13
2.01044e-13
2.33394e-13
2.73432e-13
3.25528e-13
3.93269e-13
4.87675e-13
6.1421e-13
7.76572e-13
9.8431e-13
1.25041e-12
1.58295e-12
1.98097e-12
2.44114e-12
2.95374e-12
3.50503e-12
4.07675e-12
4.66241e-12
5.24381e-12
5.8213e-12
6.34861e-12
6.81008e-12
7.20454e-12
7.5387e-12
7.80887e-12
8.00205e-12
8.13087e-12
8.1978e-12
8.19574e-12
8.1361e-12
8.04007e-12
7.8979e-12
7.74926e-12
7.57832e-12
7.41709e-12
7.24741e-12
7.11765e-12
6.83407e-12
6.15857e-12
4.11237e-12
2.52924e-15
8.48436e-15
1.54251e-14
2.33758e-14
3.23662e-14
4.2444e-14
5.36848e-14
6.62003e-14
7.94106e-14
9.11948e-14
1.03308e-13
1.15792e-13
1.28208e-13
1.41072e-13
1.5527e-13
1.71138e-13
1.89176e-13
2.10119e-13
2.33693e-13
2.61182e-13
2.97823e-13
3.4149e-13
3.98368e-13
4.66796e-13
5.55757e-13
6.64743e-13
7.94921e-13
9.49121e-13
1.12499e-12
1.31928e-12
1.52668e-12
1.74721e-12
1.96623e-12
2.17876e-12
2.39397e-12
2.59292e-12
2.78335e-12
2.95459e-12
3.102e-12
3.23866e-12
3.35514e-12
3.44964e-12
3.53673e-12
3.61084e-12
3.68504e-12
3.74607e-12
3.81334e-12
3.73589e-12
3.30905e-12
2.08859e-12
1.73544e-15
5.79491e-15
1.05145e-14
1.5916e-14
2.20157e-14
2.8827e-14
3.6366e-14
4.36798e-14
5.084e-14
5.79802e-14
6.50137e-14
7.18652e-14
7.84881e-14
8.48476e-14
9.09275e-14
9.66078e-14
1.01616e-13
1.05491e-13
1.09003e-13
1.12174e-13
1.14925e-13
1.18871e-13
1.23259e-13
1.2778e-13
1.3402e-13
1.43411e-13
1.54015e-13
1.71707e-13
1.95354e-13
2.34832e-13
2.7898e-13
3.3636e-13
3.98841e-13
4.73476e-13
5.52361e-13
6.41192e-13
7.31379e-13
8.34343e-13
9.36932e-13
1.04148e-12
1.15065e-12
1.26031e-12
1.37177e-12
1.48368e-12
1.59485e-12
1.70393e-12
1.79281e-12
1.74617e-12
1.50505e-12
8.44369e-13
1.15008e-15
3.84824e-15
7.00625e-15
1.06493e-14
1.46418e-14
1.88829e-14
2.33426e-14
2.79324e-14
3.25562e-14
3.71193e-14
4.15326e-14
4.57083e-14
4.95717e-14
5.3055e-14
5.60989e-14
5.84674e-14
5.96572e-14
6.00696e-14
5.96364e-14
5.84631e-14
5.64164e-14
5.34092e-14
4.93787e-14
4.42774e-14
3.82226e-14
4.06303e-14
4.40066e-14
4.77786e-14
5.22363e-14
5.96672e-14
6.90886e-14
8.05073e-14
9.68241e-14
1.15686e-13
1.38982e-13
1.67145e-13
1.98296e-13
2.36753e-13
2.7905e-13
3.23934e-13
3.75297e-13
4.30235e-13
4.87116e-13
5.56993e-13
6.28473e-13
6.90599e-13
7.12975e-13
6.78218e-13
5.43971e-13
2.54769e-13
6.82184e-16
2.3055e-15
4.21704e-15
6.41153e-15
8.8632e-15
1.15294e-14
1.43545e-14
1.72737e-14
2.02165e-14
2.31087e-14
2.58791e-14
2.84564e-14
3.07698e-14
3.27555e-14
3.41357e-14
3.47904e-14
3.4822e-14
3.41597e-14
3.27264e-14
3.04397e-14
2.71969e-14
2.28914e-14
1.74111e-14
1.72317e-14
1.7129e-14
1.68968e-14
1.66396e-14
1.64847e-14
1.65981e-14
1.76674e-14
1.99411e-14
2.32577e-14
2.77264e-14
3.40505e-14
4.22907e-14
5.20598e-14
6.33898e-14
7.7383e-14
9.34041e-14
1.10857e-13
1.29639e-13
1.49103e-13
1.68185e-13
1.87876e-13
2.18497e-13
2.37788e-13
2.42878e-13
2.15835e-13
1.46998e-13
6.7123e-14
3.33614e-16
1.18498e-15
2.23913e-15
3.48836e-15
4.91134e-15
6.47629e-15
8.14563e-15
9.87596e-15
1.16193e-14
1.33252e-14
1.49416e-14
1.64183e-14
1.75958e-14
1.8394e-14
1.88222e-14
1.88227e-14
1.83351e-14
1.72918e-14
1.56181e-14
1.32318e-14
1.00497e-14
9.00624e-15
8.47533e-15
7.78429e-15
6.95023e-15
6.01006e-15
5.08105e-15
4.36912e-15
3.80767e-15
3.57966e-15
3.90327e-15
4.87903e-15
6.52803e-15
9.04959e-15
1.25124e-14
1.67989e-14
2.18626e-14
2.75902e-14
3.38265e-14
4.03509e-14
4.68934e-14
5.27918e-14
5.73793e-14
5.9646e-14
6.82681e-14
7.46521e-14
7.03786e-14
5.57438e-14
3.46389e-14
1.60347e-14
9.72199e-17
4.27424e-16
9.10983e-16
1.50285e-15
2.18309e-15
2.93237e-15
3.73415e-15
4.56512e-15
5.3668e-15
6.10682e-15
6.75983e-15
7.28694e-15
7.64776e-15
7.80198e-15
7.70681e-15
7.3128e-15
6.56346e-15
5.40119e-15
4.44788e-15
4.24378e-15
3.92244e-15
3.49316e-15
2.92066e-15
2.22644e-15
1.43207e-15
5.25727e-16
6.51173e-17
6.88931e-17
7.469e-17
8.29543e-17
9.59348e-17
1.24094e-16
1.55653e-16
1.90123e-16
1.77204e-15
3.83466e-15
6.24105e-15
8.88659e-15
1.15431e-14
1.39058e-14
1.59535e-14
1.73643e-14
1.80731e-14
1.73687e-14
1.59499e-14
1.69897e-14
1.45049e-14
1.03635e-14
5.91799e-15
2.65238e-15
3.28865e-18
5.98756e-17
1.33324e-16
1.93099e-16
2.43232e-16
2.74768e-16
2.84177e-16
3.24122e-16
3.84348e-16
4.39726e-16
4.86114e-16
5.19039e-16
5.34088e-16
5.28178e-16
4.99701e-16
4.38978e-16
3.36425e-16
1.85947e-16
1.41807e-17
1.40672e-17
1.37335e-17
1.31734e-17
1.24087e-17
1.15142e-17
1.06033e-17
9.82779e-18
9.39993e-18
9.51084e-18
1.02578e-17
1.1741e-17
1.40498e-17
1.71271e-17
2.08441e-17
2.50671e-17
2.96035e-17
3.4184e-17
3.84862e-17
4.21566e-17
4.47822e-17
4.59894e-17
4.55162e-17
5.8978e-16
1.06547e-15
1.28419e-15
1.2752e-15
1.09354e-15
7.97762e-16
5.12985e-16
2.68993e-16
1.54696e-16
)
;

boundaryField
{
    AXIS
    {
        type            empty;
    }
    OUTLET
    {
        type            calculated;
        value           nonuniform List<scalar> 
25
(
3.53776e-11
3.52379e-11
3.49289e-11
3.44244e-11
3.37197e-11
3.2806e-11
3.17498e-11
3.05801e-11
2.90755e-11
2.7317e-11
2.53816e-11
2.30112e-11
2.01506e-11
1.6869e-11
1.34538e-11
1.00289e-11
6.83697e-12
4.11237e-12
2.08859e-12
8.44369e-13
2.54769e-13
6.7123e-14
1.60347e-14
2.65238e-15
1.54696e-16
)
;
    }
    COFLOW
    {
        type            calculated;
        value           uniform 0;
    }
    PILOT
    {
        type            calculated;
        value           uniform 5.49627e-22;
    }
    FUEL
    {
        type            calculated;
        value           uniform 0;
    }
    WALL
    {
        type            calculated;
        value           nonuniform List<scalar> 
50
(
3.28865e-18
5.98756e-17
1.33324e-16
1.93099e-16
2.43232e-16
2.74768e-16
2.84177e-16
3.24122e-16
3.84348e-16
4.39726e-16
4.86114e-16
5.19039e-16
5.34088e-16
5.28178e-16
4.99701e-16
4.38978e-16
3.36425e-16
1.85947e-16
1.41807e-17
1.40672e-17
1.37335e-17
1.31734e-17
1.24087e-17
1.15142e-17
1.06033e-17
9.82779e-18
9.39993e-18
9.51084e-18
1.02578e-17
1.1741e-17
1.40498e-17
1.71271e-17
2.08441e-17
2.50671e-17
2.96035e-17
3.4184e-17
3.84862e-17
4.21566e-17
4.47822e-17
4.59894e-17
4.55162e-17
5.8978e-16
1.06547e-15
1.28419e-15
1.2752e-15
1.09354e-15
7.97762e-16
5.12985e-16
2.68993e-16
1.54696e-16
)
;
    }
    front
    {
        type            wedge;
    }
    back
    {
        type            wedge;
    }
}


// ************************************************************************* //
