/*--------------------------------*- C++ -*----------------------------------*\
| =========                 |                                                 |
| \\      /  F ield         | OpenFOAM: The Open Source CFD Toolbox           |
|  \\    /   O peration     | Version:  2.4.x                                 |
|   \\  /    A nd           | Web:      www.OpenFOAM.org                      |
|    \\/     M anipulation  |                                                 |
\*---------------------------------------------------------------------------*/
FoamFile
{
    version     2.0;
    format      ascii;
    class       volScalarField;
    location    "0.1";
    object      HCNO;
}
// * * * * * * * * * * * * * * * * * * * * * * * * * * * * * * * * * * * * * //

dimensions      [0 0 0 0 0 0 0];

internalField   nonuniform List<scalar> 
1250
(
5.73972e-09
2.1873e-08
4.20589e-08
6.95836e-08
1.11098e-07
1.71334e-07
2.52871e-07
3.55608e-07
4.70854e-07
5.74073e-07
6.84886e-07
7.98589e-07
9.16108e-07
1.03129e-06
1.14347e-06
1.25213e-06
1.35217e-06
1.44585e-06
1.53382e-06
1.61639e-06
1.6917e-06
1.76202e-06
1.82622e-06
1.88382e-06
1.91236e-06
1.91679e-06
1.91716e-06
1.90954e-06
1.89969e-06
1.8849e-06
1.86652e-06
1.84475e-06
1.82027e-06
1.79538e-06
1.76903e-06
1.73853e-06
1.70458e-06
1.6686e-06
1.62846e-06
1.58601e-06
1.53845e-06
1.48954e-06
1.43873e-06
1.37833e-06
1.32545e-06
1.26159e-06
1.1854e-06
1.13586e-06
1.05244e-06
7.66356e-07
6.71073e-09
2.50016e-08
4.7384e-08
7.96218e-08
1.29279e-07
2.00466e-07
2.94778e-07
4.08663e-07
5.12999e-07
6.20773e-07
7.34355e-07
8.5048e-07
9.68526e-07
1.08311e-06
1.19476e-06
1.29984e-06
1.39743e-06
1.48884e-06
1.57429e-06
1.65357e-06
1.72677e-06
1.79402e-06
1.85554e-06
1.91145e-06
1.94823e-06
1.95028e-06
1.94606e-06
1.93639e-06
1.92336e-06
1.90605e-06
1.88519e-06
1.86093e-06
1.83361e-06
1.80715e-06
1.77861e-06
1.74624e-06
1.71088e-06
1.67319e-06
1.63152e-06
1.58752e-06
1.53872e-06
1.48865e-06
1.43676e-06
1.37551e-06
1.32191e-06
1.25735e-06
1.18062e-06
1.13073e-06
1.04682e-06
7.60375e-07
9.80218e-09
3.43416e-08
6.47373e-08
1.14266e-07
1.90638e-07
2.93188e-07
4.07179e-07
5.11725e-07
6.23705e-07
7.38648e-07
8.57225e-07
9.75868e-07
1.09259e-06
1.20515e-06
1.31077e-06
1.40907e-06
1.50012e-06
1.58513e-06
1.66391e-06
1.73656e-06
1.80336e-06
1.86423e-06
1.92016e-06
1.96997e-06
2.01526e-06
2.02115e-06
2.00899e-06
1.99381e-06
1.97457e-06
1.9515e-06
1.92575e-06
1.89562e-06
1.86268e-06
1.83206e-06
1.79868e-06
1.76221e-06
1.72358e-06
1.68221e-06
1.63713e-06
1.58996e-06
1.53889e-06
1.48626e-06
1.4321e-06
1.369e-06
1.31394e-06
1.24766e-06
1.16942e-06
1.11831e-06
1.03367e-06
7.47184e-07
1.95183e-08
6.07447e-08
1.25397e-07
2.3447e-07
3.6253e-07
4.76176e-07
5.96012e-07
7.19592e-07
8.40547e-07
9.59448e-07
1.07894e-06
1.19307e-06
1.30126e-06
1.40336e-06
1.49654e-06
1.5812e-06
1.66013e-06
1.73345e-06
1.80077e-06
1.86239e-06
1.91818e-06
1.96939e-06
2.01406e-06
2.05419e-06
2.08994e-06
2.12177e-06
2.10066e-06
2.07552e-06
2.04694e-06
2.01594e-06
1.98078e-06
1.94296e-06
1.90368e-06
1.86392e-06
1.82428e-06
1.78267e-06
1.73881e-06
1.69221e-06
1.64234e-06
1.59124e-06
1.53641e-06
1.48031e-06
1.42278e-06
1.35712e-06
1.29981e-06
1.23083e-06
1.15173e-06
1.09898e-06
1.01375e-06
7.27718e-07
6.5353e-08
2.07466e-07
4.04214e-07
5.62952e-07
7.14567e-07
8.58233e-07
9.84612e-07
1.1103e-06
1.22174e-06
1.32483e-06
1.42654e-06
1.52061e-06
1.60582e-06
1.68196e-06
1.75113e-06
1.81475e-06
1.87462e-06
1.93043e-06
1.98008e-06
2.02547e-06
2.06505e-06
2.09982e-06
2.12954e-06
2.15506e-06
2.1796e-06
2.20139e-06
2.21278e-06
2.17493e-06
2.1339e-06
2.09013e-06
2.04484e-06
1.99829e-06
1.94922e-06
1.89799e-06
1.85116e-06
1.80265e-06
1.75185e-06
1.69888e-06
1.64375e-06
1.58793e-06
1.52828e-06
1.46826e-06
1.40694e-06
1.33851e-06
1.27856e-06
1.20653e-06
1.12625e-06
1.07194e-06
9.87092e-07
7.02877e-07
1.23297e-06
1.17794e-06
1.00941e-06
1.00656e-06
1.0583e-06
1.13535e-06
1.23199e-06
1.34323e-06
1.45729e-06
1.57411e-06
1.70318e-06
1.83865e-06
1.97797e-06
2.0322e-06
2.06772e-06
2.09925e-06
2.13356e-06
2.16325e-06
2.18932e-06
2.21203e-06
2.22923e-06
2.24293e-06
2.25389e-06
2.265e-06
2.2759e-06
2.28514e-06
2.29069e-06
2.27952e-06
2.22399e-06
2.16825e-06
2.10982e-06
2.05046e-06
1.99081e-06
1.9308e-06
1.8717e-06
1.8154e-06
1.75723e-06
1.69812e-06
1.63713e-06
1.57558e-06
1.5111e-06
1.44722e-06
1.38208e-06
1.31076e-06
1.2483e-06
1.17325e-06
1.09291e-06
1.03745e-06
9.52921e-07
6.73856e-07
2.36897e-06
1.65147e-06
1.32238e-06
1.25601e-06
1.27452e-06
1.34638e-06
1.43954e-06
1.54443e-06
1.65648e-06
1.77504e-06
1.90305e-06
2.03384e-06
2.16493e-06
2.29622e-06
2.41215e-06
2.40641e-06
2.40761e-06
2.40641e-06
2.40368e-06
2.39976e-06
2.392e-06
2.38436e-06
2.37715e-06
2.36927e-06
2.36393e-06
2.35774e-06
2.3496e-06
2.33943e-06
2.30466e-06
2.2335e-06
2.16242e-06
2.09171e-06
2.02127e-06
1.95109e-06
1.8808e-06
1.81412e-06
1.74956e-06
1.68412e-06
1.61755e-06
1.55111e-06
1.48242e-06
1.41483e-06
1.3458e-06
1.27236e-06
1.20777e-06
1.13035e-06
1.05106e-06
9.95424e-07
9.12091e-07
6.41859e-07
8.95405e-07
1.65775e-06
1.39613e-06
1.36777e-06
1.40072e-06
1.48735e-06
1.59204e-06
1.70321e-06
1.81769e-06
1.94002e-06
2.06454e-06
2.18899e-06
2.31237e-06
2.43298e-06
2.55052e-06
2.67198e-06
2.64466e-06
2.61451e-06
2.58505e-06
2.55608e-06
2.52778e-06
2.49993e-06
2.47268e-06
2.44696e-06
2.42715e-06
2.40559e-06
2.38348e-06
2.3602e-06
2.33539e-06
2.27483e-06
2.1912e-06
2.10892e-06
2.02862e-06
1.95011e-06
1.87227e-06
1.79591e-06
1.72366e-06
1.65282e-06
1.58147e-06
1.51087e-06
1.43878e-06
1.36848e-06
1.29679e-06
1.22241e-06
1.15668e-06
1.0775e-06
1.00125e-06
9.45666e-07
8.65708e-07
6.06287e-07
2.05822e-07
1.23646e-06
1.19506e-06
1.27987e-06
1.39431e-06
1.50866e-06
1.64051e-06
1.76912e-06
1.89626e-06
2.02527e-06
2.15082e-06
2.27301e-06
2.39188e-06
2.50607e-06
2.6162e-06
2.73264e-06
2.80845e-06
2.75668e-06
2.70661e-06
2.65858e-06
2.61132e-06
2.56603e-06
2.52289e-06
2.48077e-06
2.44809e-06
2.41383e-06
2.37978e-06
2.34414e-06
2.3088e-06
2.27188e-06
2.18372e-06
2.09361e-06
2.00541e-06
1.92007e-06
1.8365e-06
1.75552e-06
1.67703e-06
1.60153e-06
1.52686e-06
1.45346e-06
1.37945e-06
1.30757e-06
1.23444e-06
1.16052e-06
1.09446e-06
1.0154e-06
9.43447e-07
8.89816e-07
8.14544e-07
5.62568e-07
3.88263e-08
3.71395e-07
7.83356e-07
1.00977e-06
1.20991e-06
1.3907e-06
1.55565e-06
1.71368e-06
1.86841e-06
2.02356e-06
2.17094e-06
2.30937e-06
2.43915e-06
2.56058e-06
2.67134e-06
2.77017e-06
2.86802e-06
2.81909e-06
2.75313e-06
2.69007e-06
2.62909e-06
2.56983e-06
2.51259e-06
2.45687e-06
2.41161e-06
2.36839e-06
2.32578e-06
2.28213e-06
2.23887e-06
2.19507e-06
2.12986e-06
2.03539e-06
1.94408e-06
1.85566e-06
1.7704e-06
1.68724e-06
1.60696e-06
1.52891e-06
1.45282e-06
1.37859e-06
1.3043e-06
1.23242e-06
1.15975e-06
1.08808e-06
1.02262e-06
9.45416e-07
8.79813e-07
8.28978e-07
7.59456e-07
5.17612e-07
4.56987e-09
5.6774e-08
2.34036e-07
5.89348e-07
8.91949e-07
1.12079e-06
1.33026e-06
1.52296e-06
1.68625e-06
1.84709e-06
2.01147e-06
2.16846e-06
2.31332e-06
2.44935e-06
2.57297e-06
2.67374e-06
2.76836e-06
2.72803e-06
2.66255e-06
2.59822e-06
2.53554e-06
2.4738e-06
2.41447e-06
2.35646e-06
2.30529e-06
2.25808e-06
2.21082e-06
2.16406e-06
2.11764e-06
2.07103e-06
2.02234e-06
1.9293e-06
1.83874e-06
1.75189e-06
1.66769e-06
1.58663e-06
1.50773e-06
1.43176e-06
1.35734e-06
1.28465e-06
1.21234e-06
1.14235e-06
1.0718e-06
1.00376e-06
9.40636e-07
8.67452e-07
8.0932e-07
7.62793e-07
6.93279e-07
4.7071e-07
2.98231e-09
1.63061e-08
4.77407e-08
1.50801e-07
3.6375e-07
6.97345e-07
9.77862e-07
1.17347e-06
1.36065e-06
1.53677e-06
1.69722e-06
1.85176e-06
1.99589e-06
2.13039e-06
2.25068e-06
2.37039e-06
2.43219e-06
2.41177e-06
2.37844e-06
2.33971e-06
2.29705e-06
2.25144e-06
2.20509e-06
2.15783e-06
2.1107e-06
2.06597e-06
2.02084e-06
1.97573e-06
1.93074e-06
1.88631e-06
1.84195e-06
1.76123e-06
1.67787e-06
1.59755e-06
1.51967e-06
1.44429e-06
1.37131e-06
1.3001e-06
1.23098e-06
1.16422e-06
1.09791e-06
1.03228e-06
9.66345e-07
9.03752e-07
8.44439e-07
7.78049e-07
7.28831e-07
6.88328e-07
6.17312e-07
4.19533e-07
1.70771e-09
7.47077e-09
1.65869e-08
3.49474e-08
8.18705e-08
1.97718e-07
3.6553e-07
5.84363e-07
8.25614e-07
1.05522e-06
1.25717e-06
1.4221e-06
1.57613e-06
1.7038e-06
1.77215e-06
1.82854e-06
1.86524e-06
1.8863e-06
1.89771e-06
1.89959e-06
1.8928e-06
1.87869e-06
1.85997e-06
1.83722e-06
1.80832e-06
1.77388e-06
1.73851e-06
1.70259e-06
1.66592e-06
1.62976e-06
1.59163e-06
1.52089e-06
1.45184e-06
1.38453e-06
1.31842e-06
1.25397e-06
1.19092e-06
1.12941e-06
1.06912e-06
1.0105e-06
9.52784e-07
8.97193e-07
8.40294e-07
7.85266e-07
7.32261e-07
6.75771e-07
6.36422e-07
5.97892e-07
5.32476e-07
3.63307e-07
1.04223e-09
4.10353e-09
8.38923e-09
1.43856e-08
2.4586e-08
4.31168e-08
7.97132e-08
1.50461e-07
2.63961e-07
3.91682e-07
5.37175e-07
6.86951e-07
8.3006e-07
9.46535e-07
1.04725e-06
1.13372e-06
1.20781e-06
1.26622e-06
1.3155e-06
1.35289e-06
1.37978e-06
1.39752e-06
1.40888e-06
1.41342e-06
1.40725e-06
1.39066e-06
1.37195e-06
1.3516e-06
1.32972e-06
1.30694e-06
1.26369e-06
1.2147e-06
1.16563e-06
1.11717e-06
1.06787e-06
1.01906e-06
9.70439e-07
9.2219e-07
8.7439e-07
8.2735e-07
7.80728e-07
7.35313e-07
6.8957e-07
6.46393e-07
6.0384e-07
5.5941e-07
5.28963e-07
4.93759e-07
4.41036e-07
3.03803e-07
6.76469e-10
2.50142e-09
4.87493e-09
7.8933e-09
1.16446e-08
1.66621e-08
2.3962e-08
3.57252e-08
5.56271e-08
8.94146e-08
1.42638e-07
2.1465e-07
2.98918e-07
3.76937e-07
4.56226e-07
5.33011e-07
6.05973e-07
6.7343e-07
7.35178e-07
7.90346e-07
8.38624e-07
8.78961e-07
9.13569e-07
9.40702e-07
9.52181e-07
9.56573e-07
9.58091e-07
9.56371e-07
9.40605e-07
9.1911e-07
8.96026e-07
8.71424e-07
8.44954e-07
8.1724e-07
7.87129e-07
7.56817e-07
7.25233e-07
6.92622e-07
6.59739e-07
6.26664e-07
5.93383e-07
5.60315e-07
5.27309e-07
4.95515e-07
4.64482e-07
4.3418e-07
4.13494e-07
3.85253e-07
3.47931e-07
2.42508e-07
4.54465e-10
1.60682e-09
3.01462e-09
4.68061e-09
6.63347e-09
8.92874e-09
1.15364e-08
1.48604e-08
1.9239e-08
2.53889e-08
3.42294e-08
4.65365e-08
6.43305e-08
8.8846e-08
1.20436e-07
1.58527e-07
2.01574e-07
2.47785e-07
2.95444e-07
3.41542e-07
3.85698e-07
4.26208e-07
4.62568e-07
4.88231e-07
5.08272e-07
5.23685e-07
5.34915e-07
5.42085e-07
5.45861e-07
5.46178e-07
5.44336e-07
5.3989e-07
5.32719e-07
5.23456e-07
5.11461e-07
4.97855e-07
4.82123e-07
4.65331e-07
4.47411e-07
4.2822e-07
4.08521e-07
3.88334e-07
3.68196e-07
3.48271e-07
3.29907e-07
3.12836e-07
3.00112e-07
2.82859e-07
2.58214e-07
1.83455e-07
3.08792e-10
1.06015e-09
1.94613e-09
2.95748e-09
4.08784e-09
5.33957e-09
6.72895e-09
8.25145e-09
9.9046e-09
1.18544e-08
1.39375e-08
1.63667e-08
1.94805e-08
2.35702e-08
2.91026e-08
3.65375e-08
4.64235e-08
5.92301e-08
7.49338e-08
9.32244e-08
1.1327e-07
1.34198e-07
1.54967e-07
1.74974e-07
1.93698e-07
2.1091e-07
2.26206e-07
2.39621e-07
2.50921e-07
2.60402e-07
2.68387e-07
2.74018e-07
2.78017e-07
2.798e-07
2.79736e-07
2.77981e-07
2.74306e-07
2.69304e-07
2.62981e-07
2.55572e-07
2.47614e-07
2.38763e-07
2.29874e-07
2.20931e-07
2.13213e-07
2.05998e-07
2.00774e-07
1.94184e-07
1.79327e-07
1.2842e-07
2.0945e-10
7.06174e-10
1.28046e-09
1.9247e-09
2.63022e-09
3.38959e-09
4.19823e-09
5.05595e-09
5.96765e-09
6.87542e-09
7.63303e-09
8.4141e-09
9.23432e-09
1.01261e-08
1.11811e-08
1.23935e-08
1.40053e-08
1.5995e-08
1.88329e-08
2.24892e-08
2.70005e-08
3.24495e-08
3.87378e-08
4.58158e-08
5.35759e-08
6.17225e-08
7.00242e-08
7.84769e-08
8.65004e-08
9.42594e-08
1.01674e-07
1.08268e-07
1.14063e-07
1.19006e-07
1.23049e-07
1.26022e-07
1.28208e-07
1.29528e-07
1.29908e-07
1.29523e-07
1.2871e-07
1.27393e-07
1.26159e-07
1.24887e-07
1.24089e-07
1.23545e-07
1.2463e-07
1.23934e-07
1.14534e-07
8.1405e-08
1.40373e-10
4.68502e-10
8.44427e-10
1.26353e-09
1.71979e-09
2.2066e-09
2.7176e-09
3.2472e-09
3.77106e-09
4.22379e-09
4.64605e-09
5.03071e-09
5.35538e-09
5.63083e-09
5.87605e-09
6.08769e-09
6.26423e-09
6.6507e-09
7.17473e-09
7.73573e-09
8.47621e-09
9.28699e-09
1.03205e-08
1.14793e-08
1.29736e-08
1.47415e-08
1.67822e-08
1.91393e-08
2.17448e-08
2.46117e-08
2.76842e-08
3.09743e-08
3.42199e-08
3.73647e-08
4.07016e-08
4.3824e-08
4.67793e-08
4.94515e-08
5.18088e-08
5.40632e-08
5.61262e-08
5.80308e-08
6.00511e-08
6.22233e-08
6.47002e-08
6.73905e-08
7.08505e-08
7.18972e-08
6.59241e-08
4.49717e-08
9.18904e-11
3.05488e-10
5.50002e-10
8.23112e-10
1.12132e-09
1.44016e-09
1.77466e-09
2.09273e-09
2.39068e-09
2.66671e-09
2.91317e-09
3.12286e-09
3.28979e-09
3.40836e-09
3.47346e-09
3.47962e-09
3.493e-09
3.57711e-09
3.63515e-09
3.66614e-09
3.66551e-09
3.68386e-09
3.68682e-09
3.65943e-09
3.64589e-09
3.6723e-09
3.68099e-09
3.8207e-09
4.09322e-09
4.83065e-09
5.6293e-09
6.68629e-09
7.80262e-09
9.1312e-09
1.04974e-08
1.2023e-08
1.35342e-08
1.53164e-08
1.70545e-08
1.88112e-08
2.06329e-08
2.28746e-08
2.53289e-08
2.79926e-08
3.08641e-08
3.38352e-08
3.66979e-08
3.69762e-08
3.34462e-08
2.0855e-08
5.77301e-11
1.92411e-10
3.47804e-10
5.23068e-10
7.12111e-10
9.09134e-10
1.10981e-09
1.30786e-09
1.49657e-09
1.66931e-09
1.81972e-09
1.94155e-09
2.02919e-09
2.0774e-09
2.08123e-09
2.06279e-09
2.08283e-09
2.07122e-09
2.02525e-09
1.94987e-09
1.83611e-09
1.67999e-09
1.47832e-09
1.22842e-09
9.34228e-10
9.89057e-10
1.06692e-09
1.15167e-09
1.24892e-09
1.41542e-09
1.62363e-09
1.87049e-09
2.22472e-09
2.6228e-09
3.10773e-09
3.68508e-09
4.3046e-09
5.07022e-09
5.89039e-09
6.73415e-09
7.68577e-09
8.67066e-09
9.65221e-09
1.14863e-08
1.35388e-08
1.54497e-08
1.66194e-08
1.66293e-08
1.42224e-08
7.54388e-09
3.28114e-11
1.10632e-10
2.01497e-10
3.04414e-10
4.17223e-10
5.36794e-10
6.59258e-10
7.80207e-10
8.94936e-10
9.9855e-10
1.08623e-09
1.15328e-09
1.19497e-09
1.20693e-09
1.21639e-09
1.22825e-09
1.21539e-09
1.17505e-09
1.10421e-09
9.99608e-10
8.57183e-10
6.72644e-10
4.41395e-10
4.33031e-10
4.30342e-10
4.24114e-10
4.16977e-10
4.12034e-10
4.1336e-10
4.38423e-10
4.92954e-10
5.72155e-10
6.77899e-10
8.27342e-10
1.02044e-09
1.24551e-09
1.50159e-09
1.81477e-09
2.16632e-09
2.53971e-09
2.9308e-09
3.32364e-09
3.69624e-09
4.14204e-09
5.23899e-09
6.09766e-09
6.66293e-09
6.29678e-09
4.59287e-09
2.24197e-09
1.54045e-11
5.45443e-11
1.02455e-10
1.58238e-10
2.20252e-10
2.86285e-10
3.53774e-10
4.19845e-10
4.81379e-10
5.35112e-10
5.77655e-10
6.05697e-10
6.31295e-10
6.54701e-10
6.63391e-10
6.55151e-10
6.27641e-10
5.78223e-10
5.03956e-10
4.01589e-10
2.67807e-10
2.29084e-10
2.1542e-10
1.97664e-10
1.76246e-10
1.52107e-10
1.28246e-10
1.10039e-10
9.54875e-11
8.92841e-11
9.69936e-11
1.21107e-10
1.61966e-10
2.24416e-10
3.09954e-10
4.15159e-10
5.38383e-10
6.76339e-10
8.24795e-10
9.78135e-10
1.12982e-09
1.26453e-09
1.36788e-09
1.41773e-09
1.80308e-09
2.17778e-09
2.18658e-09
1.81426e-09
1.16658e-09
5.49883e-10
4.20832e-12
1.83841e-11
3.86031e-11
6.24646e-11
8.86321e-11
1.15759e-10
1.42593e-10
1.6759e-10
1.93498e-10
2.18807e-10
2.40395e-10
2.56769e-10
2.66382e-10
2.67703e-10
2.59112e-10
2.38705e-10
2.04281e-10
1.53601e-10
1.13838e-10
1.08567e-10
1.00307e-10
8.92739e-11
7.45602e-11
5.67119e-11
3.62811e-11
1.29698e-11
1.11442e-12
1.17808e-12
1.27577e-12
1.41472e-12
1.63375e-12
2.11485e-12
2.65077e-12
3.23239e-12
4.32671e-11
9.53568e-11
1.55901e-10
2.22197e-10
2.88523e-10
3.47327e-10
3.98236e-10
4.33364e-10
4.50977e-10
4.33543e-10
4.06395e-10
4.96188e-10
4.51962e-10
3.35009e-10
1.94709e-10
8.81001e-11
1.26796e-13
2.17028e-12
4.72967e-12
6.59551e-12
7.91565e-12
8.33338e-12
7.70207e-12
8.34581e-12
9.88947e-12
1.13058e-11
1.24886e-11
1.33231e-11
1.36963e-11
1.35299e-11
1.27831e-11
1.12075e-11
8.55678e-12
4.67355e-12
2.43647e-13
2.41751e-13
2.36077e-13
2.26512e-13
2.13422e-13
1.98082e-13
1.82438e-13
1.69098e-13
1.61713e-13
1.63567e-13
1.76322e-13
2.01672e-13
2.41105e-13
2.93585e-13
3.56851e-13
4.28569e-13
5.05424e-13
5.82843e-13
6.55401e-13
7.17203e-13
7.61395e-13
7.81783e-13
7.74019e-13
1.47109e-11
2.69476e-11
3.26563e-11
3.25512e-11
2.80018e-11
2.04819e-11
1.31964e-11
6.92739e-12
3.99113e-12
)
;

boundaryField
{
    AXIS
    {
        type            empty;
    }
    OUTLET
    {
        type            calculated;
        value           nonuniform List<scalar> 
25
(
7.66356e-07
7.60375e-07
7.47184e-07
7.27718e-07
7.02877e-07
6.73856e-07
6.41859e-07
6.06287e-07
5.62568e-07
5.17612e-07
4.7071e-07
4.19533e-07
3.63307e-07
3.03803e-07
2.42508e-07
1.83455e-07
1.2842e-07
8.1405e-08
4.49717e-08
2.0855e-08
7.54388e-09
2.24197e-09
5.49883e-10
8.81001e-11
3.99113e-12
)
;
    }
    COFLOW
    {
        type            calculated;
        value           uniform 0;
    }
    PILOT
    {
        type            calculated;
        value           uniform 1.69733e-15;
    }
    FUEL
    {
        type            calculated;
        value           uniform 0;
    }
    WALL
    {
        type            calculated;
        value           nonuniform List<scalar> 
50
(
1.26796e-13
2.17028e-12
4.72967e-12
6.59551e-12
7.91565e-12
8.33338e-12
7.70207e-12
8.34581e-12
9.88947e-12
1.13058e-11
1.24886e-11
1.33231e-11
1.36963e-11
1.35299e-11
1.27831e-11
1.12075e-11
8.55678e-12
4.67355e-12
2.43647e-13
2.41751e-13
2.36077e-13
2.26512e-13
2.13422e-13
1.98082e-13
1.82438e-13
1.69098e-13
1.61713e-13
1.63567e-13
1.76322e-13
2.01672e-13
2.41105e-13
2.93585e-13
3.56851e-13
4.28569e-13
5.05424e-13
5.82843e-13
6.55401e-13
7.17203e-13
7.61395e-13
7.81783e-13
7.74019e-13
1.47109e-11
2.69476e-11
3.26563e-11
3.25512e-11
2.80018e-11
2.04819e-11
1.31964e-11
6.92739e-12
3.99113e-12
)
;
    }
    front
    {
        type            wedge;
    }
    back
    {
        type            wedge;
    }
}


// ************************************************************************* //
