/*--------------------------------*- C++ -*----------------------------------*\
| =========                 |                                                 |
| \\      /  F ield         | OpenFOAM: The Open Source CFD Toolbox           |
|  \\    /   O peration     | Version:  2.4.x                                 |
|   \\  /    A nd           | Web:      www.OpenFOAM.org                      |
|    \\/     M anipulation  |                                                 |
\*---------------------------------------------------------------------------*/
FoamFile
{
    version     2.0;
    format      ascii;
    class       volScalarField;
    location    "0.1";
    object      HCO;
}
// * * * * * * * * * * * * * * * * * * * * * * * * * * * * * * * * * * * * * //

dimensions      [0 0 0 0 0 0 0];

internalField   nonuniform List<scalar> 
1250
(
3.49698e-10
1.32506e-09
2.51453e-09
4.08572e-09
6.40758e-09
9.7414e-09
1.42218e-08
1.98349e-08
2.63693e-08
3.39625e-08
4.19559e-08
4.94258e-08
5.70283e-08
6.43236e-08
7.15147e-08
7.83537e-08
8.38424e-08
8.80185e-08
9.20969e-08
9.60739e-08
9.98218e-08
1.03162e-07
1.05969e-07
1.08335e-07
1.11258e-07
1.139e-07
1.16229e-07
1.17837e-07
1.19565e-07
1.21192e-07
1.226e-07
1.23599e-07
1.24057e-07
1.2407e-07
1.23842e-07
1.23226e-07
1.22158e-07
1.2079e-07
1.1904e-07
1.17014e-07
1.1471e-07
1.12224e-07
1.09711e-07
1.06494e-07
1.03861e-07
1.00741e-07
9.63968e-08
9.46246e-08
9.28085e-08
7.62944e-08
4.07756e-10
1.51116e-09
2.81883e-09
4.64382e-09
7.4122e-09
1.135e-08
1.65364e-08
2.27735e-08
3.01822e-08
3.82746e-08
4.6537e-08
5.42457e-08
6.18569e-08
6.92227e-08
7.64033e-08
8.29703e-08
8.82114e-08
9.22423e-08
9.61267e-08
9.99046e-08
1.0344e-07
1.06383e-07
1.09219e-07
1.11718e-07
1.14446e-07
1.16937e-07
1.18801e-07
1.20337e-07
1.21939e-07
1.23445e-07
1.24678e-07
1.2548e-07
1.25795e-07
1.25695e-07
1.25321e-07
1.24555e-07
1.23373e-07
1.21875e-07
1.20002e-07
1.1787e-07
1.15465e-07
1.12889e-07
1.10271e-07
1.06975e-07
1.04269e-07
1.0108e-07
9.66144e-08
9.47675e-08
9.28144e-08
7.59079e-08
5.91728e-10
2.05907e-09
3.79438e-09
6.55877e-09
1.08119e-08
1.65046e-08
2.35757e-08
3.18168e-08
4.0614e-08
4.96557e-08
5.83206e-08
6.62094e-08
7.38294e-08
8.11307e-08
8.7787e-08
9.38811e-08
9.84493e-08
1.01983e-07
1.05398e-07
1.08636e-07
1.11436e-07
1.1399e-07
1.16923e-07
1.19288e-07
1.21569e-07
1.23387e-07
1.24545e-07
1.25868e-07
1.27219e-07
1.28422e-07
1.29295e-07
1.29622e-07
1.29608e-07
1.29245e-07
1.2855e-07
1.27438e-07
1.25981e-07
1.24199e-07
1.22034e-07
1.19693e-07
1.17085e-07
1.14296e-07
1.11455e-07
1.0798e-07
1.05123e-07
1.01759e-07
9.69805e-08
9.49229e-08
9.26567e-08
7.50489e-08
1.16368e-09
3.55432e-09
7.12435e-09
1.32418e-08
2.16428e-08
3.16498e-08
4.20912e-08
5.26845e-08
6.27033e-08
7.24102e-08
8.08927e-08
8.83538e-08
9.52015e-08
1.0151e-07
1.07158e-07
1.12159e-07
1.15398e-07
1.17946e-07
1.2033e-07
1.22336e-07
1.24414e-07
1.26873e-07
1.29544e-07
1.3117e-07
1.3199e-07
1.32616e-07
1.33441e-07
1.34401e-07
1.35305e-07
1.3592e-07
1.35996e-07
1.35742e-07
1.3524e-07
1.34408e-07
1.33177e-07
1.31603e-07
1.297e-07
1.27463e-07
1.24922e-07
1.22266e-07
1.19316e-07
1.16187e-07
1.1304e-07
1.09284e-07
1.06194e-07
1.02467e-07
9.73697e-08
9.50259e-08
9.23291e-08
7.37068e-08
3.74118e-09
1.13282e-08
2.51753e-08
4.27219e-08
5.89369e-08
7.34266e-08
8.51331e-08
9.62298e-08
1.05377e-07
1.13569e-07
1.19484e-07
1.24632e-07
1.29105e-07
1.32954e-07
1.36305e-07
1.39284e-07
1.40217e-07
1.4084e-07
1.41566e-07
1.42635e-07
1.44054e-07
1.45564e-07
1.46602e-07
1.4591e-07
1.45308e-07
1.45244e-07
1.45683e-07
1.45985e-07
1.45866e-07
1.45368e-07
1.44631e-07
1.43682e-07
1.42464e-07
1.40813e-07
1.38917e-07
1.36699e-07
1.34148e-07
1.3137e-07
1.28383e-07
1.25274e-07
1.21836e-07
1.1829e-07
1.14789e-07
1.10682e-07
1.07256e-07
1.03035e-07
9.75458e-08
9.48496e-08
9.16233e-08
7.18957e-08
7.34727e-08
1.03374e-07
1.2816e-07
1.42448e-07
1.53005e-07
1.61533e-07
1.66263e-07
1.70479e-07
1.73382e-07
1.75397e-07
1.75775e-07
1.76557e-07
1.77426e-07
1.77292e-07
1.76814e-07
1.76187e-07
1.73887e-07
1.72276e-07
1.71201e-07
1.70378e-07
1.69106e-07
1.67599e-07
1.65986e-07
1.64171e-07
1.62905e-07
1.6197e-07
1.60816e-07
1.59542e-07
1.58138e-07
1.56621e-07
1.54923e-07
1.52877e-07
1.5056e-07
1.47977e-07
1.45136e-07
1.42115e-07
1.38914e-07
1.35556e-07
1.31955e-07
1.28222e-07
1.2424e-07
1.20289e-07
1.16364e-07
1.1179e-07
1.07909e-07
1.03162e-07
9.73467e-08
9.42364e-08
9.03389e-08
6.96583e-08
2.85796e-07
3.50232e-07
3.33682e-07
3.14615e-07
3.01055e-07
2.95672e-07
2.84407e-07
2.74702e-07
2.66189e-07
2.57998e-07
2.50228e-07
2.43603e-07
2.37722e-07
2.32619e-07
2.27913e-07
2.22131e-07
2.16365e-07
2.11071e-07
2.06161e-07
2.01545e-07
1.97486e-07
1.93875e-07
1.90698e-07
1.87179e-07
1.83713e-07
1.80513e-07
1.77447e-07
1.74549e-07
1.7175e-07
1.68856e-07
1.65743e-07
1.62446e-07
1.58921e-07
1.55154e-07
1.51214e-07
1.47317e-07
1.43399e-07
1.39296e-07
1.34993e-07
1.30694e-07
1.26216e-07
1.21806e-07
1.17289e-07
1.1214e-07
1.0785e-07
1.02628e-07
9.64502e-08
9.29566e-08
8.83298e-08
6.71312e-08
1.11597e-07
3.72234e-07
4.46165e-07
4.49955e-07
4.35283e-07
4.24678e-07
4.05975e-07
3.86309e-07
3.67389e-07
3.50085e-07
3.33781e-07
3.18894e-07
3.05489e-07
2.93374e-07
2.82478e-07
2.732e-07
2.63106e-07
2.53763e-07
2.45278e-07
2.37449e-07
2.30156e-07
2.23307e-07
2.16829e-07
2.10711e-07
2.05277e-07
2.00009e-07
1.94985e-07
1.90051e-07
1.85159e-07
1.80553e-07
1.75952e-07
1.71229e-07
1.66461e-07
1.6165e-07
1.56687e-07
1.5163e-07
1.46749e-07
1.41932e-07
1.37046e-07
1.32212e-07
1.27169e-07
1.22164e-07
1.17031e-07
1.11527e-07
1.06916e-07
1.01054e-07
9.46902e-08
9.08357e-08
8.553e-08
6.42191e-08
2.77019e-08
1.92662e-07
3.31298e-07
4.23999e-07
4.65472e-07
4.79091e-07
4.7671e-07
4.61928e-07
4.43836e-07
4.25301e-07
4.05618e-07
3.86271e-07
3.67813e-07
3.5038e-07
3.34288e-07
3.2101e-07
3.08911e-07
2.95771e-07
2.83549e-07
2.72105e-07
2.61304e-07
2.51235e-07
2.41802e-07
2.32882e-07
2.25433e-07
2.1815e-07
2.11121e-07
2.04068e-07
1.97174e-07
1.90208e-07
1.84217e-07
1.78265e-07
1.72267e-07
1.6631e-07
1.60293e-07
1.54375e-07
1.48563e-07
1.4308e-07
1.37573e-07
1.32085e-07
1.26434e-07
1.21014e-07
1.1548e-07
1.096e-07
1.04588e-07
9.8273e-08
9.18907e-08
8.77604e-08
8.2007e-08
6.05483e-08
4.86009e-09
4.15357e-08
1.27721e-07
2.49499e-07
3.50909e-07
4.1653e-07
4.52505e-07
4.64218e-07
4.68751e-07
4.63551e-07
4.52554e-07
4.36064e-07
4.16942e-07
3.9734e-07
3.78163e-07
3.61364e-07
3.45852e-07
3.30151e-07
3.15274e-07
3.01073e-07
2.87525e-07
2.74688e-07
2.62457e-07
2.50806e-07
2.41171e-07
2.32018e-07
2.23101e-07
2.14266e-07
2.05609e-07
1.96968e-07
1.8899e-07
1.81964e-07
1.75056e-07
1.68243e-07
1.61595e-07
1.54909e-07
1.48358e-07
1.41835e-07
1.35771e-07
1.29943e-07
1.24004e-07
1.18176e-07
1.12247e-07
1.06211e-07
1.0095e-07
9.42727e-08
8.80829e-08
8.37928e-08
7.77545e-08
5.65165e-08
3.66497e-10
4.81748e-09
2.29275e-08
8.22711e-08
1.73746e-07
2.63618e-07
3.34109e-07
3.80169e-07
4.10273e-07
4.22786e-07
4.33106e-07
4.30129e-07
4.2208e-07
4.10814e-07
3.97092e-07
3.83079e-07
3.68112e-07
3.51323e-07
3.34655e-07
3.18526e-07
3.03035e-07
2.88225e-07
2.74103e-07
2.6064e-07
2.49266e-07
2.38898e-07
2.28637e-07
2.18563e-07
2.08664e-07
1.9882e-07
1.89156e-07
1.81482e-07
1.73808e-07
1.66364e-07
1.59099e-07
1.52073e-07
1.45135e-07
1.38436e-07
1.3173e-07
1.25483e-07
1.19341e-07
1.13357e-07
1.07244e-07
1.01174e-07
9.57261e-08
8.88991e-08
8.31175e-08
7.88728e-08
7.26706e-08
5.21095e-08
2.07596e-10
1.17241e-09
3.85276e-09
1.3603e-08
4.43181e-08
1.02254e-07
1.70909e-07
2.31919e-07
2.82572e-07
3.18027e-07
3.41811e-07
3.54124e-07
3.60641e-07
3.60508e-07
3.56767e-07
3.54027e-07
3.47722e-07
3.37172e-07
3.24591e-07
3.11342e-07
2.97726e-07
2.84072e-07
2.70671e-07
2.57546e-07
2.4568e-07
2.35032e-07
2.24358e-07
2.1374e-07
2.03236e-07
1.92896e-07
1.82711e-07
1.74613e-07
1.6691e-07
1.59421e-07
1.52113e-07
1.44996e-07
1.3809e-07
1.31274e-07
1.24667e-07
1.18259e-07
1.1198e-07
1.06026e-07
9.99011e-08
9.39824e-08
8.8548e-08
8.18852e-08
7.66927e-08
7.27922e-08
6.62617e-08
4.69848e-08
1.15223e-10
5.09625e-10
1.18116e-09
2.72083e-09
7.13747e-09
1.87919e-08
4.49363e-08
8.40139e-08
1.28268e-07
1.70165e-07
2.06402e-07
2.34616e-07
2.55737e-07
2.691e-07
2.76816e-07
2.82204e-07
2.83009e-07
2.80616e-07
2.76331e-07
2.70067e-07
2.62258e-07
2.53352e-07
2.43888e-07
2.34017e-07
2.24158e-07
2.1473e-07
2.05103e-07
1.95383e-07
1.8563e-07
1.75979e-07
1.66492e-07
1.59438e-07
1.525e-07
1.45642e-07
1.38884e-07
1.32283e-07
1.25811e-07
1.19474e-07
1.1328e-07
1.07244e-07
1.01328e-07
9.56006e-08
8.98057e-08
8.4262e-08
7.90337e-08
7.3029e-08
6.87425e-08
6.49493e-08
5.83463e-08
4.10245e-08
6.96669e-11
2.75639e-10
5.71632e-10
1.01186e-09
1.83391e-09
3.51834e-09
7.21769e-09
1.48736e-08
2.87387e-08
5.04792e-08
7.60692e-08
1.02257e-07
1.26534e-07
1.46551e-07
1.62956e-07
1.76185e-07
1.86168e-07
1.92567e-07
1.96788e-07
1.98362e-07
1.9779e-07
1.95469e-07
1.91885e-07
1.8709e-07
1.81206e-07
1.74667e-07
1.67812e-07
1.60676e-07
1.53301e-07
1.45799e-07
1.40031e-07
1.34687e-07
1.29289e-07
1.23907e-07
1.18431e-07
1.12996e-07
1.07589e-07
1.02247e-07
9.69672e-08
9.18073e-08
8.66996e-08
8.17501e-08
7.67259e-08
7.1917e-08
6.72399e-08
6.21588e-08
5.87171e-08
5.5067e-08
4.9287e-08
3.43815e-08
4.50865e-11
1.67191e-10
3.27744e-10
5.37045e-10
8.0906e-10
1.19908e-09
1.82281e-09
2.94035e-09
5.02455e-09
8.81967e-09
1.50485e-08
2.36317e-08
3.39319e-08
4.68653e-08
6.00994e-08
7.28006e-08
8.45282e-08
9.47816e-08
1.03463e-07
1.10643e-07
1.16137e-07
1.19662e-07
1.22006e-07
1.22666e-07
1.21447e-07
1.19103e-07
1.16241e-07
1.12802e-07
1.1013e-07
1.07567e-07
1.04801e-07
1.0185e-07
9.86665e-08
9.53155e-08
9.16896e-08
8.80235e-08
8.42182e-08
8.03144e-08
7.63759e-08
7.24308e-08
6.84816e-08
6.45915e-08
6.06972e-08
5.69882e-08
5.33585e-08
4.97125e-08
4.72562e-08
4.39084e-08
3.93672e-08
2.74501e-08
3.02878e-11
1.073e-10
2.0198e-10
3.15389e-10
4.51055e-10
6.1561e-10
8.11699e-10
1.07799e-09
1.4583e-09
2.04372e-09
2.96354e-09
4.34122e-09
6.42925e-09
9.41581e-09
1.33592e-08
1.81836e-08
2.3683e-08
2.96086e-08
3.56929e-08
4.15832e-08
4.71578e-08
5.22162e-08
5.67032e-08
5.98337e-08
6.2217e-08
6.40455e-08
6.54421e-08
6.63527e-08
6.68143e-08
6.68291e-08
6.65093e-08
6.58784e-08
6.48993e-08
6.36346e-08
6.20407e-08
6.02459e-08
5.81977e-08
5.60236e-08
5.3719e-08
5.12764e-08
4.87868e-08
4.62449e-08
4.36834e-08
4.11675e-08
3.8836e-08
3.65859e-08
3.48739e-08
3.24849e-08
2.9355e-08
2.05768e-08
2.06134e-11
7.08773e-11
1.30406e-10
1.98856e-10
2.76228e-10
3.63326e-10
4.62257e-10
5.74145e-10
7.00929e-10
8.58676e-10
1.0414e-09
1.27177e-09
1.58899e-09
2.03434e-09
2.66827e-09
3.55837e-09
4.78094e-09
6.40373e-09
8.43136e-09
1.08215e-08
1.34371e-08
1.61136e-08
1.8793e-08
2.13778e-08
2.37893e-08
2.6007e-08
2.79898e-08
2.97243e-08
3.11922e-08
3.24082e-08
3.34184e-08
3.41339e-08
3.45991e-08
3.47812e-08
3.46926e-08
3.43755e-08
3.38189e-08
3.3094e-08
3.22034e-08
3.11778e-08
3.00878e-08
2.88857e-08
2.76709e-08
2.64444e-08
2.53586e-08
2.43077e-08
2.34172e-08
2.22311e-08
2.02236e-08
1.4158e-08
1.40212e-11
4.73289e-11
8.59667e-11
1.29535e-10
1.77607e-10
2.29887e-10
2.86339e-10
3.47315e-10
4.1366e-10
4.82195e-10
5.43334e-10
6.10139e-10
6.85191e-10
7.72713e-10
8.81923e-10
1.01709e-09
1.20195e-09
1.44259e-09
1.76889e-09
2.19054e-09
2.72379e-09
3.38252e-09
4.16146e-09
5.05378e-09
6.04159e-09
7.09509e-09
8.18096e-09
9.28882e-09
1.03693e-08
1.14234e-08
1.23994e-08
1.3258e-08
1.40008e-08
1.46256e-08
1.51266e-08
1.54843e-08
1.57263e-08
1.58542e-08
1.58562e-08
1.57545e-08
1.55908e-08
1.53505e-08
1.5108e-08
1.48387e-08
1.46068e-08
1.43806e-08
1.42818e-08
1.39218e-08
1.26843e-08
8.67628e-09
9.43222e-12
3.15096e-11
5.68715e-11
8.52615e-11
1.16344e-10
1.49763e-10
1.85193e-10
2.22382e-10
2.59916e-10
2.9376e-10
3.26642e-10
3.58295e-10
3.87199e-10
4.14379e-10
4.41709e-10
4.69432e-10
4.98076e-10
5.40704e-10
5.94018e-10
6.54411e-10
7.34401e-10
8.27041e-10
9.46495e-10
1.08676e-09
1.26786e-09
1.48649e-09
1.74395e-09
2.04524e-09
2.38433e-09
2.75694e-09
3.15373e-09
3.57491e-09
3.99194e-09
4.3962e-09
4.8102e-09
5.19403e-09
5.55867e-09
5.88652e-09
6.17096e-09
6.43461e-09
6.66494e-09
6.8614e-09
7.05375e-09
7.23676e-09
7.43332e-09
7.62304e-09
7.85424e-09
7.79973e-09
6.99893e-09
4.54358e-09
6.20283e-12
2.06366e-11
3.71972e-11
5.5758e-11
7.61204e-11
9.80283e-11
1.21198e-10
1.43654e-10
1.65188e-10
1.85717e-10
2.04798e-10
2.22021e-10
2.37062e-10
2.49629e-10
2.59474e-10
2.66139e-10
2.72664e-10
2.81976e-10
2.90011e-10
2.96779e-10
3.02027e-10
3.09971e-10
3.18342e-10
3.26172e-10
3.37372e-10
3.55009e-10
3.74059e-10
4.08311e-10
4.55473e-10
5.4041e-10
6.34128e-10
7.55684e-10
8.86306e-10
1.0411e-09
1.20276e-09
1.38335e-09
1.56483e-09
1.77285e-09
1.97821e-09
2.1861e-09
2.40179e-09
2.63256e-09
2.8731e-09
3.12132e-09
3.37572e-09
3.63044e-09
3.85257e-09
3.79302e-09
3.32365e-09
1.94233e-09
3.91827e-12
1.30675e-11
2.36451e-11
3.5612e-11
4.86027e-11
6.2267e-11
7.63436e-11
9.04494e-11
1.04173e-10
1.17108e-10
1.28867e-10
1.39067e-10
1.47371e-10
1.53463e-10
1.57053e-10
1.5903e-10
1.61954e-10
1.62724e-10
1.61159e-10
1.57592e-10
1.51564e-10
1.42832e-10
1.3122e-10
1.16591e-10
9.92675e-11
1.05125e-10
1.13367e-10
1.22528e-10
1.33258e-10
1.51188e-10
1.73787e-10
2.00879e-10
2.39327e-10
2.83115e-10
3.36557e-10
4.00368e-10
4.6981e-10
5.54811e-10
6.46898e-10
7.43059e-10
8.51756e-10
9.66058e-10
1.08233e-09
1.24285e-09
1.41185e-09
1.56158e-09
1.62786e-09
1.57087e-09
1.28841e-09
6.38058e-10
2.24715e-12
7.58303e-12
1.38316e-11
2.09424e-11
2.87889e-11
3.71819e-11
4.58843e-11
5.4624e-11
6.31092e-11
7.10347e-11
7.8103e-11
8.40202e-11
8.84935e-11
9.1252e-11
9.33998e-11
9.50759e-11
9.50339e-11
9.30808e-11
8.90068e-11
8.25872e-11
7.35425e-11
6.15817e-11
4.6399e-11
4.58498e-11
4.55403e-11
4.49023e-11
4.42117e-11
4.37957e-11
4.40803e-11
4.68491e-11
5.27262e-11
6.12354e-11
7.25861e-11
8.85228e-11
1.09073e-10
1.33118e-10
1.60628e-10
1.94221e-10
2.32136e-10
2.72799e-10
3.15882e-10
3.59785e-10
4.0212e-10
4.4683e-10
5.25648e-10
5.78822e-10
6.00018e-10
5.42926e-10
3.80267e-10
1.79602e-10
1.06979e-12
3.7921e-12
7.13793e-12
1.10581e-11
1.54545e-11
2.01915e-11
2.51112e-11
3.00348e-11
3.47673e-11
3.91045e-11
4.28345e-11
4.57508e-11
4.83107e-11
5.0457e-11
5.15803e-11
5.15223e-11
5.01173e-11
4.71795e-11
4.25034e-11
3.58626e-11
2.70283e-11
2.4175e-11
2.27719e-11
2.09442e-11
1.87378e-11
1.62521e-11
1.38003e-11
1.19464e-11
1.05086e-11
9.96579e-12
1.0885e-11
1.35159e-11
1.78935e-11
2.45435e-11
3.35967e-11
4.46861e-11
5.76586e-11
7.21948e-11
8.78776e-11
1.04137e-10
1.20301e-10
1.34752e-10
1.45916e-10
1.514e-10
1.75449e-10
1.94657e-10
1.85935e-10
1.492e-10
9.38806e-11
4.38357e-11
2.98993e-13
1.30918e-12
2.76404e-12
4.50461e-12
6.44812e-12
8.51198e-12
1.0621e-11
1.26791e-11
1.47717e-11
1.67968e-11
1.85784e-11
2.00096e-11
2.09792e-11
2.13765e-11
2.10841e-11
1.99651e-11
1.78636e-11
1.46208e-11
1.19751e-11
1.14365e-11
1.0586e-11
9.44753e-12
7.92689e-12
6.08179e-12
3.97044e-12
1.56218e-12
3.41838e-13
3.61445e-13
3.91536e-13
4.34362e-13
5.00446e-13
6.3727e-13
7.9038e-13
9.57157e-13
5.18371e-12
1.06493e-11
1.69866e-11
2.39181e-11
3.08517e-11
3.70013e-11
4.23202e-11
4.59881e-11
4.78429e-11
4.60494e-11
4.24434e-11
4.57093e-11
3.93091e-11
2.82342e-11
1.6179e-11
7.26691e-12
9.40708e-15
1.65148e-13
3.67148e-13
5.30356e-13
6.65898e-13
7.48925e-13
7.69636e-13
8.75687e-13
1.0388e-12
1.18909e-12
1.31547e-12
1.40596e-12
1.44878e-12
1.43566e-12
1.36226e-12
1.2027e-12
9.31304e-13
5.31699e-13
7.46578e-14
7.40725e-14
7.23291e-14
6.93934e-14
6.53785e-14
6.06756e-14
5.58816e-14
5.17951e-14
4.95351e-14
5.01075e-14
5.40224e-14
6.18009e-14
7.39032e-14
9.00164e-14
1.09451e-13
1.31496e-13
1.55135e-13
1.78962e-13
2.01307e-13
2.20347e-13
2.33964e-13
2.4024e-13
2.37831e-13
1.67486e-12
2.92744e-12
3.49667e-12
3.45988e-12
2.96284e-12
2.16103e-12
1.38986e-12
7.29636e-13
4.18487e-13
)
;

boundaryField
{
    AXIS
    {
        type            empty;
    }
    OUTLET
    {
        type            calculated;
        value           nonuniform List<scalar> 
25
(
7.62944e-08
7.59079e-08
7.50489e-08
7.37068e-08
7.18957e-08
6.96583e-08
6.71312e-08
6.42191e-08
6.05483e-08
5.65165e-08
5.21095e-08
4.69848e-08
4.10245e-08
3.43815e-08
2.74501e-08
2.05768e-08
1.4158e-08
8.67628e-09
4.54358e-09
1.94233e-09
6.38058e-10
1.79602e-10
4.38357e-11
7.26691e-12
4.18487e-13
)
;
    }
    COFLOW
    {
        type            calculated;
        value           uniform 0;
    }
    PILOT
    {
        type            calculated;
        value           uniform 4.95317e-10;
    }
    FUEL
    {
        type            calculated;
        value           uniform 0;
    }
    WALL
    {
        type            calculated;
        value           nonuniform List<scalar> 
50
(
9.40708e-15
1.65148e-13
3.67148e-13
5.30356e-13
6.65898e-13
7.48925e-13
7.69636e-13
8.75687e-13
1.0388e-12
1.18909e-12
1.31547e-12
1.40596e-12
1.44878e-12
1.43566e-12
1.36226e-12
1.2027e-12
9.31304e-13
5.31699e-13
7.46578e-14
7.40725e-14
7.23291e-14
6.93934e-14
6.53785e-14
6.06756e-14
5.58816e-14
5.17951e-14
4.95351e-14
5.01075e-14
5.40224e-14
6.18009e-14
7.39032e-14
9.00164e-14
1.09451e-13
1.31496e-13
1.55135e-13
1.78962e-13
2.01307e-13
2.20347e-13
2.33964e-13
2.4024e-13
2.37831e-13
1.67486e-12
2.92744e-12
3.49667e-12
3.45988e-12
2.96284e-12
2.16103e-12
1.38986e-12
7.29636e-13
4.18487e-13
)
;
    }
    front
    {
        type            wedge;
    }
    back
    {
        type            wedge;
    }
}


// ************************************************************************* //
