/*--------------------------------*- C++ -*----------------------------------*\
| =========                 |                                                 |
| \\      /  F ield         | OpenFOAM: The Open Source CFD Toolbox           |
|  \\    /   O peration     | Version:  2.4.x                                 |
|   \\  /    A nd           | Web:      www.OpenFOAM.org                      |
|    \\/     M anipulation  |                                                 |
\*---------------------------------------------------------------------------*/
FoamFile
{
    version     2.0;
    format      ascii;
    class       volScalarField;
    location    "0.1";
    object      HNCO;
}
// * * * * * * * * * * * * * * * * * * * * * * * * * * * * * * * * * * * * * //

dimensions      [0 0 0 0 0 0 0];

internalField   nonuniform List<scalar> 
1250
(
4.60413e-08
1.70367e-07
3.08116e-07
4.64281e-07
6.63472e-07
9.21307e-07
1.2471e-06
1.64109e-06
2.07519e-06
2.46121e-06
2.87452e-06
3.30666e-06
3.75759e-06
4.21014e-06
4.65683e-06
5.10332e-06
5.53298e-06
5.95251e-06
6.35934e-06
6.75589e-06
7.13435e-06
7.50096e-06
7.84915e-06
8.17172e-06
8.383e-06
8.50492e-06
8.61052e-06
8.6845e-06
8.74647e-06
8.7848e-06
8.80603e-06
8.80974e-06
8.79548e-06
8.76763e-06
8.73077e-06
8.67496e-06
8.60322e-06
8.52003e-06
8.41526e-06
8.29727e-06
8.15054e-06
7.99272e-06
7.81415e-06
7.58652e-06
7.37748e-06
7.10576e-06
6.765e-06
6.48984e-06
5.9446e-06
4.27886e-06
5.39315e-08
1.93588e-07
3.40456e-07
5.12621e-07
7.37665e-07
1.02959e-06
1.39467e-06
1.82237e-06
2.20927e-06
2.60735e-06
3.0279e-06
3.46584e-06
3.91894e-06
4.36771e-06
4.81323e-06
5.25043e-06
5.67328e-06
6.08516e-06
6.48539e-06
6.87178e-06
7.2441e-06
7.60115e-06
7.94006e-06
8.25565e-06
8.4986e-06
8.61228e-06
8.70155e-06
8.76802e-06
8.81775e-06
8.84673e-06
8.85859e-06
8.85296e-06
8.82918e-06
8.79536e-06
8.75031e-06
8.68752e-06
8.61041e-06
8.52042e-06
8.40971e-06
8.28519e-06
8.13341e-06
7.97007e-06
7.7871e-06
7.55532e-06
7.34323e-06
7.06793e-06
6.72548e-06
6.44844e-06
5.90137e-06
4.24029e-06
7.90498e-08
2.60676e-07
4.36974e-07
6.6474e-07
9.72215e-07
1.3587e-06
1.77519e-06
2.14997e-06
2.55156e-06
2.96605e-06
3.40041e-06
3.84492e-06
4.29231e-06
4.73372e-06
5.16576e-06
5.58379e-06
5.9879e-06
6.3813e-06
6.76213e-06
7.12916e-06
7.48245e-06
7.81865e-06
8.1378e-06
8.43174e-06
8.70823e-06
8.83823e-06
8.89918e-06
8.94554e-06
8.97148e-06
8.97951e-06
8.97297e-06
8.94567e-06
8.90189e-06
8.85352e-06
8.7901e-06
8.71194e-06
8.62246e-06
8.51742e-06
8.39397e-06
8.25567e-06
8.09514e-06
7.9198e-06
7.72759e-06
7.48683e-06
7.26846e-06
6.98449e-06
6.63536e-06
6.35289e-06
5.80236e-06
4.15571e-06
1.57403e-07
4.29089e-07
7.13116e-07
1.11737e-06
1.56511e-06
1.94536e-06
2.34785e-06
2.76644e-06
3.18837e-06
3.61181e-06
4.04938e-06
4.48003e-06
4.90461e-06
5.32064e-06
5.71932e-06
6.09924e-06
6.47049e-06
6.83085e-06
7.17955e-06
7.51486e-06
7.8337e-06
8.13773e-06
8.41858e-06
8.68078e-06
8.92587e-06
9.15412e-06
9.18276e-06
9.19154e-06
9.18357e-06
9.16249e-06
9.12169e-06
9.06529e-06
8.99805e-06
8.91897e-06
8.83232e-06
8.73514e-06
8.62511e-06
8.50013e-06
8.35739e-06
8.20312e-06
8.02653e-06
7.83627e-06
7.62864e-06
7.37631e-06
7.14709e-06
6.84991e-06
6.49796e-06
6.20894e-06
5.65572e-06
4.03135e-06
4.97715e-07
1.104e-06
1.70255e-06
2.14499e-06
2.58651e-06
3.02164e-06
3.43141e-06
3.85219e-06
4.24978e-06
4.63387e-06
5.02806e-06
5.40983e-06
5.77553e-06
6.12301e-06
6.45847e-06
6.784e-06
7.10417e-06
7.41783e-06
7.7159e-06
8.00257e-06
8.27063e-06
8.52266e-06
8.75666e-06
8.97194e-06
9.17928e-06
9.37112e-06
9.51877e-06
9.48202e-06
9.42955e-06
9.36243e-06
9.28442e-06
9.19635e-06
9.09266e-06
8.97498e-06
8.86241e-06
8.73863e-06
8.60239e-06
8.45259e-06
8.28874e-06
8.1152e-06
7.91796e-06
7.71094e-06
7.48536e-06
7.22079e-06
6.97872e-06
6.66692e-06
6.30962e-06
6.01681e-06
5.46425e-06
3.87393e-06
5.22551e-06
4.06859e-06
3.44653e-06
3.42255e-06
3.59437e-06
3.857e-06
4.19329e-06
4.58215e-06
4.98375e-06
5.3963e-06
5.84966e-06
6.32561e-06
6.81564e-06
7.10926e-06
7.35963e-06
7.60083e-06
7.85389e-06
8.09473e-06
8.32562e-06
8.54594e-06
8.74686e-06
8.93409e-06
9.10813e-06
9.27494e-06
9.43363e-06
9.58139e-06
9.71045e-06
9.77275e-06
9.66917e-06
9.55953e-06
9.43336e-06
9.29823e-06
9.15627e-06
9.00651e-06
8.85183e-06
8.69965e-06
8.5346e-06
8.36114e-06
8.17354e-06
7.97627e-06
7.75849e-06
7.53346e-06
7.29072e-06
7.01251e-06
6.75839e-06
6.43179e-06
6.075e-06
5.77777e-06
5.23073e-06
3.69225e-06
8.59419e-06
5.53376e-06
4.36935e-06
4.14825e-06
4.22419e-06
4.48065e-06
4.81995e-06
5.20025e-06
5.60573e-06
6.03157e-06
6.48793e-06
6.95422e-06
7.42199e-06
7.89046e-06
8.32208e-06
8.4659e-06
8.62977e-06
8.7855e-06
8.93439e-06
9.07634e-06
9.20058e-06
9.32015e-06
9.43506e-06
9.53959e-06
9.64412e-06
9.73946e-06
9.82098e-06
9.88762e-06
9.8586e-06
9.69341e-06
9.52249e-06
9.34672e-06
9.16547e-06
8.97866e-06
8.78319e-06
8.59304e-06
8.40403e-06
8.20538e-06
7.9958e-06
7.77714e-06
7.54086e-06
7.29872e-06
7.03775e-06
6.74946e-06
6.48411e-06
6.14646e-06
5.79388e-06
5.49731e-06
4.96318e-06
3.49332e-06
3.88454e-06
5.61751e-06
4.58851e-06
4.46484e-06
4.58313e-06
4.89207e-06
5.27447e-06
5.68263e-06
6.10349e-06
6.54844e-06
7.00013e-06
7.45138e-06
7.89862e-06
8.33587e-06
8.76227e-06
9.19903e-06
9.28325e-06
9.35647e-06
9.42712e-06
9.49326e-06
9.55502e-06
9.61065e-06
9.66028e-06
9.70574e-06
9.76023e-06
9.80116e-06
9.83292e-06
9.85276e-06
9.85855e-06
9.7306e-06
9.51476e-06
9.29719e-06
9.08001e-06
8.8623e-06
8.63872e-06
8.41261e-06
8.19424e-06
7.97352e-06
7.74316e-06
7.5065e-06
7.25449e-06
6.99928e-06
6.72549e-06
6.43132e-06
6.15973e-06
5.81262e-06
5.47372e-06
5.17917e-06
4.66966e-06
3.27826e-06
1.12419e-06
4.29631e-06
4.01959e-06
4.22934e-06
4.58817e-06
4.97117e-06
5.43153e-06
5.89248e-06
6.35276e-06
6.82051e-06
7.2773e-06
7.72281e-06
8.15677e-06
8.57419e-06
8.97687e-06
9.39623e-06
9.71646e-06
9.72456e-06
9.73107e-06
9.73645e-06
9.73613e-06
9.73353e-06
9.72924e-06
9.71853e-06
9.7271e-06
9.72209e-06
9.70996e-06
9.68391e-06
9.65081e-06
9.60348e-06
9.37074e-06
9.12466e-06
8.87801e-06
8.63432e-06
8.38815e-06
8.14312e-06
7.89866e-06
7.65818e-06
7.41302e-06
7.16325e-06
6.90139e-06
6.63654e-06
6.35475e-06
6.06046e-06
5.78445e-06
5.43818e-06
5.11776e-06
4.83378e-06
4.35837e-06
3.02658e-06
2.41479e-07
1.53826e-06
2.71561e-06
3.4332e-06
4.06491e-06
4.65054e-06
5.19992e-06
5.74285e-06
6.28172e-06
6.82993e-06
7.35458e-06
7.85206e-06
8.32016e-06
8.76109e-06
9.16539e-06
9.52484e-06
9.87928e-06
9.87448e-06
9.82313e-06
9.77235e-06
9.71957e-06
9.66287e-06
9.60345e-06
9.53976e-06
9.50101e-06
9.4611e-06
9.41519e-06
9.35687e-06
9.29175e-06
9.21655e-06
9.05974e-06
8.79563e-06
8.53547e-06
8.2779e-06
8.02357e-06
7.76807e-06
7.51442e-06
7.25972e-06
7.00555e-06
6.74953e-06
6.48382e-06
6.21597e-06
5.93317e-06
5.64626e-06
5.37117e-06
5.03279e-06
4.73921e-06
4.47033e-06
4.0361e-06
2.77349e-06
3.22411e-08
3.2589e-07
9.87105e-07
2.10382e-06
3.07546e-06
3.83024e-06
4.52285e-06
5.16959e-06
5.72428e-06
6.28059e-06
6.85333e-06
7.40687e-06
7.91844e-06
8.40346e-06
8.84604e-06
9.20963e-06
9.55181e-06
9.55545e-06
9.48938e-06
9.41958e-06
9.34734e-06
9.26978e-06
9.19193e-06
9.10999e-06
9.04267e-06
8.9812e-06
8.91118e-06
8.83501e-06
8.75237e-06
8.66149e-06
8.55601e-06
8.29362e-06
8.03225e-06
7.77681e-06
7.52226e-06
7.27071e-06
7.01833e-06
6.76819e-06
6.51427e-06
6.25941e-06
5.99752e-06
5.73439e-06
5.45809e-06
5.18362e-06
4.91605e-06
4.59558e-06
4.33418e-06
4.08704e-06
3.67074e-06
2.51466e-06
2.14021e-08
1.11753e-07
2.75534e-07
6.84546e-07
1.42315e-06
2.47827e-06
3.39149e-06
4.05468e-06
4.68967e-06
5.29034e-06
5.83911e-06
6.37387e-06
6.87424e-06
7.34427e-06
7.76958e-06
8.19782e-06
8.47837e-06
8.53613e-06
8.54624e-06
8.53555e-06
8.50746e-06
8.46453e-06
8.41306e-06
8.35216e-06
8.28515e-06
8.21995e-06
8.14623e-06
8.06569e-06
7.97863e-06
7.88716e-06
7.78937e-06
7.56321e-06
7.32168e-06
7.08396e-06
6.84683e-06
6.61057e-06
6.37502e-06
6.13771e-06
5.89999e-06
5.66178e-06
5.41773e-06
5.16796e-06
4.90753e-06
4.65293e-06
4.39999e-06
4.10929e-06
3.88657e-06
3.66883e-06
3.263e-06
2.23908e-06
1.23595e-08
5.3399e-08
1.13249e-07
2.13979e-07
4.23447e-07
8.68195e-07
1.45885e-06
2.1886e-06
2.97379e-06
3.72027e-06
4.38852e-06
4.95812e-06
5.49105e-06
5.94339e-06
6.23029e-06
6.48487e-06
6.68442e-06
6.83757e-06
6.95993e-06
7.0529e-06
7.11695e-06
7.15521e-06
7.175e-06
7.17828e-06
7.15629e-06
7.10948e-06
7.05448e-06
6.99242e-06
6.92236e-06
6.84922e-06
6.76407e-06
6.56523e-06
6.36604e-06
6.16701e-06
5.96491e-06
5.76189e-06
5.55648e-06
5.34903e-06
5.13889e-06
4.92722e-06
4.712e-06
4.49709e-06
4.27005e-06
4.04409e-06
3.81638e-06
3.56888e-06
3.38868e-06
3.18239e-06
2.81606e-06
1.94155e-06
7.57437e-09
2.96687e-08
5.98581e-08
9.95995e-08
1.60543e-07
2.55829e-07
4.17724e-07
6.99244e-07
1.12267e-06
1.58749e-06
2.10462e-06
2.63283e-06
3.13887e-06
3.55627e-06
3.92843e-06
4.25871e-06
4.55176e-06
4.79994e-06
5.01873e-06
5.2002e-06
5.34839e-06
5.4684e-06
5.56612e-06
5.64041e-06
5.67583e-06
5.67147e-06
5.65682e-06
5.63337e-06
5.6012e-06
5.56245e-06
5.45299e-06
5.3199e-06
5.18157e-06
5.04066e-06
4.89027e-06
4.73625e-06
4.57679e-06
4.41244e-06
4.24345e-06
4.07091e-06
3.89417e-06
3.71575e-06
3.53053e-06
3.35026e-06
3.16563e-06
2.96866e-06
2.82537e-06
2.63719e-06
2.34245e-06
1.63002e-06
4.92316e-09
1.8156e-08
3.5196e-08
5.64264e-08
8.18575e-08
1.13936e-07
1.56768e-07
2.18897e-07
3.13554e-07
4.61283e-07
6.80126e-07
9.62955e-07
1.28481e-06
1.58546e-06
1.88994e-06
2.18575e-06
2.46923e-06
2.7359e-06
2.98471e-06
3.21281e-06
3.41903e-06
3.59924e-06
3.75907e-06
3.89425e-06
3.97159e-06
4.02309e-06
4.06327e-06
4.09085e-06
4.07098e-06
4.03006e-06
3.98097e-06
3.9233e-06
3.85536e-06
3.77927e-06
3.68949e-06
3.59549e-06
3.4918e-06
3.37936e-06
3.26161e-06
3.13834e-06
3.00993e-06
2.87742e-06
2.74093e-06
2.60492e-06
2.46817e-06
2.33063e-06
2.22886e-06
2.07809e-06
1.86497e-06
1.31362e-06
3.30806e-09
1.16771e-08
2.18509e-08
3.37859e-08
4.75841e-08
6.34676e-08
8.09323e-08
1.02275e-07
1.28822e-07
1.63661e-07
2.10163e-07
2.70368e-07
3.53414e-07
4.63194e-07
6.00356e-07
7.61998e-07
9.41924e-07
1.1333e-06
1.3304e-06
1.52178e-06
1.70696e-06
1.87982e-06
2.03833e-06
2.15661e-06
2.25495e-06
2.33718e-06
2.40403e-06
2.45676e-06
2.49659e-06
2.52292e-06
2.54015e-06
2.54577e-06
2.53908e-06
2.52233e-06
2.49233e-06
2.45362e-06
2.40334e-06
2.34639e-06
2.28198e-06
2.20902e-06
2.13126e-06
2.04832e-06
1.9632e-06
1.87608e-06
1.79267e-06
1.71179e-06
1.64644e-06
1.54949e-06
1.40569e-06
1.00943e-06
2.24641e-09
7.70423e-09
1.4121e-08
2.14124e-08
2.95077e-08
3.83899e-08
4.81273e-08
5.86177e-08
6.97422e-08
8.25048e-08
9.56461e-08
1.10304e-07
1.28288e-07
1.50929e-07
1.80556e-07
2.19192e-07
2.69311e-07
3.3263e-07
4.08585e-07
4.95642e-07
5.89423e-07
6.86827e-07
7.83034e-07
8.76277e-07
9.64579e-07
1.04739e-06
1.12275e-06
1.1909e-06
1.25075e-06
1.30395e-06
1.35063e-06
1.38697e-06
1.41638e-06
1.43556e-06
1.44615e-06
1.44854e-06
1.44138e-06
1.42727e-06
1.40593e-06
1.37841e-06
1.34719e-06
1.31021e-06
1.27174e-06
1.23159e-06
1.19523e-06
1.15903e-06
1.13086e-06
1.08964e-06
9.99373e-07
7.24582e-07
1.52205e-09
5.12792e-09
9.28864e-09
1.39429e-08
1.90198e-08
2.4456e-08
3.02066e-08
3.62558e-08
4.262e-08
4.88877e-08
5.4044e-08
5.92586e-08
6.46068e-08
7.02707e-08
7.68272e-08
8.4147e-08
9.37645e-08
1.0539e-07
1.21871e-07
1.42731e-07
1.68008e-07
1.98019e-07
2.3203e-07
2.6986e-07
3.11146e-07
3.54161e-07
3.97966e-07
4.43046e-07
4.8588e-07
5.27586e-07
5.68017e-07
6.04535e-07
6.37244e-07
6.6599e-07
6.9046e-07
7.09546e-07
7.24664e-07
7.35177e-07
7.40807e-07
7.42262e-07
7.4121e-07
7.37084e-07
7.32909e-07
7.28159e-07
7.24914e-07
7.21792e-07
7.25765e-07
7.17181e-07
6.59069e-07
4.76357e-07
1.01855e-09
3.39766e-09
6.11944e-09
9.14769e-09
1.24354e-08
1.59309e-08
1.95838e-08
2.33492e-08
2.70557e-08
3.02561e-08
3.32203e-08
3.58952e-08
3.81199e-08
3.99694e-08
4.15755e-08
4.29121e-08
4.39665e-08
4.64563e-08
4.98408e-08
5.33951e-08
5.80728e-08
6.30972e-08
6.94802e-08
7.65303e-08
8.56327e-08
9.63477e-08
1.08657e-07
1.22813e-07
1.38354e-07
1.55472e-07
1.73858e-07
1.93525e-07
2.12855e-07
2.31554e-07
2.51672e-07
2.70611e-07
2.88539e-07
3.04801e-07
3.19229e-07
3.33045e-07
3.45708e-07
3.57367e-07
3.69535e-07
3.82304e-07
3.96433e-07
4.11338e-07
4.29497e-07
4.32662e-07
3.95697e-07
2.76499e-07
6.65504e-10
2.21161e-09
3.97954e-09
5.95109e-09
8.09919e-09
1.03896e-08
1.27842e-08
1.50612e-08
1.71913e-08
1.91585e-08
2.09076e-08
2.23869e-08
2.35535e-08
2.43675e-08
2.47931e-08
2.47923e-08
2.48433e-08
2.54021e-08
2.57685e-08
2.59354e-08
2.58707e-08
2.5931e-08
2.58727e-08
2.55916e-08
2.54e-08
2.54773e-08
2.54253e-08
2.62739e-08
2.80275e-08
3.29429e-08
3.82294e-08
4.52263e-08
5.25627e-08
6.12542e-08
7.01262e-08
7.99734e-08
8.96615e-08
1.01121e-07
1.12227e-07
1.23396e-07
1.34922e-07
1.48997e-07
1.64266e-07
1.80622e-07
1.9803e-07
2.15691e-07
2.3221e-07
2.32943e-07
2.11423e-07
1.36037e-07
4.17155e-10
1.38994e-09
2.51129e-09
3.77432e-09
5.13583e-09
6.55412e-09
7.99707e-09
9.41913e-09
1.07717e-08
1.2007e-08
1.30792e-08
1.39434e-08
1.45592e-08
1.48895e-08
1.48987e-08
1.47486e-08
1.48811e-08
1.47862e-08
1.44448e-08
1.38924e-08
1.30648e-08
1.19342e-08
1.04781e-08
8.67842e-09
6.56428e-09
6.945e-09
7.48631e-09
8.07375e-09
8.74528e-09
9.89786e-09
1.13362e-08
1.30358e-08
1.54725e-08
1.81978e-08
2.15068e-08
2.54315e-08
2.9618e-08
3.478e-08
4.02776e-08
4.58954e-08
5.21989e-08
5.86712e-08
6.50646e-08
7.70616e-08
9.03735e-08
1.02603e-07
1.1003e-07
1.10164e-07
9.51155e-08
5.20599e-08
2.36791e-10
7.98311e-10
1.45373e-09
2.19575e-09
3.0086e-09
3.86952e-09
4.75043e-09
5.6194e-09
6.44242e-09
7.18413e-09
7.8098e-09
8.28557e-09
8.57756e-09
8.65421e-09
8.71485e-09
8.7955e-09
8.69846e-09
8.40407e-09
7.89074e-09
7.13508e-09
6.10813e-09
4.77918e-09
3.11539e-09
3.05488e-09
3.03567e-09
2.99141e-09
2.94063e-09
2.90512e-09
2.91352e-09
3.0889e-09
3.47123e-09
4.02599e-09
4.76549e-09
5.80967e-09
7.15654e-09
8.722e-09
1.04976e-08
1.2664e-08
1.50872e-08
1.76496e-08
2.03208e-08
2.29893e-08
2.55058e-08
2.85237e-08
3.60482e-08
4.19539e-08
4.59246e-08
4.3639e-08
3.22012e-08
1.5934e-08
1.11109e-10
3.93378e-10
7.38793e-10
1.14079e-09
1.58741e-09
2.06263e-09
2.54783e-09
3.02223e-09
3.46328e-09
3.84741e-09
4.15015e-09
4.34762e-09
4.52831e-09
4.69436e-09
4.75453e-09
4.69294e-09
4.49278e-09
4.13513e-09
3.59884e-09
2.86057e-09
1.89648e-09
1.61859e-09
1.52205e-09
1.3966e-09
1.2453e-09
1.07478e-09
9.06246e-10
7.77797e-10
6.75143e-10
6.314e-10
6.85815e-10
8.5586e-10
1.14374e-09
1.58353e-09
2.18537e-09
2.9246e-09
3.78915e-09
4.75549e-09
5.79352e-09
6.86367e-09
7.92025e-09
8.85652e-09
9.57369e-09
9.91886e-09
1.26585e-08
1.53467e-08
1.54709e-08
1.28942e-08
8.32742e-09
3.93646e-09
3.03253e-11
1.32459e-10
2.78059e-10
4.49762e-10
6.37878e-10
8.32646e-10
1.02498e-09
1.20373e-09
1.38915e-09
1.57036e-09
1.72468e-09
1.84139e-09
1.90938e-09
1.91765e-09
1.85459e-09
1.70648e-09
1.45751e-09
1.09156e-09
8.04865e-10
7.67613e-10
7.09259e-10
6.31296e-10
5.27319e-10
4.01182e-10
2.56789e-10
9.20414e-11
8.26685e-12
8.73904e-12
9.46349e-12
1.04937e-11
1.21139e-11
1.56525e-11
1.95946e-11
2.38726e-11
3.06552e-10
6.74082e-10
1.10096e-09
1.56806e-09
2.03512e-09
2.44902e-09
2.80727e-09
3.05453e-09
3.17855e-09
3.05611e-09
2.86832e-09
3.52493e-09
3.22154e-09
2.39312e-09
1.3927e-09
6.30645e-10
9.12005e-13
1.55921e-11
3.39508e-11
4.72733e-11
5.66228e-11
5.94293e-11
5.46363e-11
5.90479e-11
6.99672e-11
7.99857e-11
8.83517e-11
9.42548e-11
9.68968e-11
9.57229e-11
9.04469e-11
7.93114e-11
6.05749e-11
3.31246e-11
1.80761e-12
1.79361e-12
1.7516e-12
1.68073e-12
1.58372e-12
1.47003e-12
1.35409e-12
1.25524e-12
1.20057e-12
1.21444e-12
1.30917e-12
1.4973e-12
1.78986e-12
2.17915e-12
2.64837e-12
3.1802e-12
3.75004e-12
4.32397e-12
4.86179e-12
5.31981e-12
5.64724e-12
5.79822e-12
5.74054e-12
1.04162e-10
1.90594e-10
2.30935e-10
2.30209e-10
1.98066e-10
1.44903e-10
9.33762e-11
4.90249e-11
2.82445e-11
)
;

boundaryField
{
    AXIS
    {
        type            empty;
    }
    OUTLET
    {
        type            calculated;
        value           nonuniform List<scalar> 
25
(
4.27886e-06
4.24029e-06
4.15571e-06
4.03135e-06
3.87393e-06
3.69225e-06
3.49332e-06
3.27826e-06
3.02658e-06
2.77349e-06
2.51466e-06
2.23908e-06
1.94155e-06
1.63002e-06
1.31362e-06
1.00943e-06
7.24582e-07
4.76357e-07
2.76499e-07
1.36037e-07
5.20599e-08
1.5934e-08
3.93646e-09
6.30645e-10
2.82445e-11
)
;
    }
    COFLOW
    {
        type            calculated;
        value           uniform 0;
    }
    PILOT
    {
        type            calculated;
        value           uniform 2.95677e-11;
    }
    FUEL
    {
        type            calculated;
        value           uniform 0;
    }
    WALL
    {
        type            calculated;
        value           nonuniform List<scalar> 
50
(
9.12005e-13
1.55921e-11
3.39508e-11
4.72733e-11
5.66228e-11
5.94293e-11
5.46363e-11
5.90479e-11
6.99672e-11
7.99857e-11
8.83517e-11
9.42548e-11
9.68968e-11
9.57229e-11
9.04469e-11
7.93114e-11
6.05749e-11
3.31246e-11
1.80761e-12
1.79361e-12
1.7516e-12
1.68073e-12
1.58372e-12
1.47003e-12
1.35409e-12
1.25524e-12
1.20057e-12
1.21444e-12
1.30917e-12
1.4973e-12
1.78986e-12
2.17915e-12
2.64837e-12
3.1802e-12
3.75004e-12
4.32397e-12
4.86179e-12
5.31981e-12
5.64724e-12
5.79822e-12
5.74054e-12
1.04162e-10
1.90594e-10
2.30935e-10
2.30209e-10
1.98066e-10
1.44903e-10
9.33762e-11
4.90249e-11
2.82445e-11
)
;
    }
    front
    {
        type            wedge;
    }
    back
    {
        type            wedge;
    }
}


// ************************************************************************* //
