/*--------------------------------*- C++ -*----------------------------------*\
| =========                 |                                                 |
| \\      /  F ield         | OpenFOAM: The Open Source CFD Toolbox           |
|  \\    /   O peration     | Version:  2.4.x                                 |
|   \\  /    A nd           | Web:      www.OpenFOAM.org                      |
|    \\/     M anipulation  |                                                 |
\*---------------------------------------------------------------------------*/
FoamFile
{
    version     2.0;
    format      ascii;
    class       volScalarField;
    location    "0.1";
    object      HNO;
}
// * * * * * * * * * * * * * * * * * * * * * * * * * * * * * * * * * * * * * //

dimensions      [0 0 0 0 0 0 0];

internalField   nonuniform List<scalar> 
1250
(
4.12431e-11
1.60285e-10
3.09832e-10
4.87801e-10
7.12462e-10
9.95564e-10
1.34369e-09
1.75483e-09
2.2096e-09
2.66481e-09
3.12445e-09
3.53104e-09
3.94823e-09
4.36484e-09
4.78989e-09
5.21642e-09
5.56636e-09
5.81459e-09
6.07985e-09
6.36298e-09
6.66853e-09
6.99151e-09
7.33145e-09
7.53527e-09
7.71722e-09
7.89729e-09
8.10722e-09
8.34494e-09
8.62489e-09
8.95074e-09
9.31347e-09
9.7061e-09
1.00784e-08
1.03798e-08
1.07332e-08
1.11376e-08
1.15826e-08
1.20781e-08
1.26279e-08
1.32111e-08
1.38363e-08
1.44701e-08
1.51348e-08
1.58035e-08
1.64469e-08
1.71365e-08
1.76431e-08
1.79869e-08
1.82521e-08
1.70323e-08
4.67371e-11
1.81553e-10
3.44522e-10
5.42729e-10
7.97387e-10
1.1176e-09
1.50721e-09
1.95423e-09
2.40617e-09
2.88137e-09
3.34913e-09
3.76442e-09
4.18221e-09
4.60288e-09
5.02901e-09
5.44929e-09
5.78707e-09
6.03338e-09
6.29438e-09
6.57596e-09
6.87921e-09
7.1959e-09
7.53995e-09
7.75323e-09
7.95364e-09
8.12929e-09
8.33097e-09
8.5674e-09
8.84779e-09
9.17165e-09
9.53019e-09
9.91863e-09
1.03073e-08
1.0605e-08
1.09535e-08
1.1351e-08
1.17907e-08
1.2281e-08
1.28227e-08
1.33963e-08
1.40102e-08
1.46312e-08
1.52833e-08
1.59358e-08
1.6564e-08
1.72352e-08
1.7717e-08
1.80398e-08
1.82565e-08
1.69509e-08
6.33674e-11
2.42716e-10
4.48905e-10
7.15041e-10
1.06387e-09
1.48784e-09
1.95814e-09
2.42866e-09
2.92467e-09
3.43792e-09
3.91359e-09
4.33431e-09
4.75419e-09
5.17412e-09
5.58598e-09
5.99417e-09
6.30108e-09
6.53582e-09
6.7883e-09
7.06268e-09
7.35383e-09
7.66702e-09
8.02042e-09
8.24009e-09
8.45958e-09
8.64055e-09
8.82904e-09
9.0612e-09
9.34048e-09
9.65729e-09
1.00063e-08
1.03836e-08
1.07899e-08
1.1094e-08
1.14317e-08
1.1813e-08
1.22401e-08
1.27193e-08
1.32407e-08
1.37931e-08
1.43836e-08
1.49762e-08
1.56012e-08
1.62183e-08
1.68141e-08
1.74426e-08
1.78569e-08
1.81231e-08
1.82274e-08
1.67722e-08
1.11064e-10
4.03112e-10
7.52559e-10
1.23024e-09
1.78143e-09
2.3196e-09
2.87015e-09
3.42508e-09
3.96562e-09
4.50365e-09
4.95814e-09
5.36111e-09
5.75381e-09
6.14107e-09
6.52152e-09
6.89635e-09
7.14616e-09
7.35563e-09
7.58823e-09
7.83777e-09
8.11617e-09
8.43369e-09
8.78383e-09
8.99655e-09
9.188e-09
9.42117e-09
9.60197e-09
9.82941e-09
1.00968e-08
1.03973e-08
1.07267e-08
1.1086e-08
1.14741e-08
1.18217e-08
1.21342e-08
1.24935e-08
1.29013e-08
1.33549e-08
1.3845e-08
1.43658e-08
1.49157e-08
1.54664e-08
1.60483e-08
1.66075e-08
1.71491e-08
1.77039e-08
1.80415e-08
1.82282e-08
1.81747e-08
1.64866e-08
3.1601e-10
1.07312e-09
1.95255e-09
2.78914e-09
3.55041e-09
4.23072e-09
4.81016e-09
5.37182e-09
5.87313e-09
6.35305e-09
6.6898e-09
7.00426e-09
7.30913e-09
7.60902e-09
7.91233e-09
8.22476e-09
8.38419e-09
8.54394e-09
8.73347e-09
8.9594e-09
9.22066e-09
9.51135e-09
9.81933e-09
9.99685e-09
1.0166e-08
1.03952e-08
1.06637e-08
1.08692e-08
1.11074e-08
1.13776e-08
1.16799e-08
1.20117e-08
1.237e-08
1.27411e-08
1.30297e-08
1.33596e-08
1.37331e-08
1.41475e-08
1.45957e-08
1.50694e-08
1.55627e-08
1.60602e-08
1.65833e-08
1.70648e-08
1.75342e-08
1.79939e-08
1.82085e-08
1.83182e-08
1.80511e-08
1.60969e-08
5.29637e-09
5.70707e-09
5.59999e-09
5.8294e-09
6.15863e-09
6.52697e-09
6.91925e-09
7.36028e-09
7.81481e-09
8.26417e-09
8.62224e-09
9.02666e-09
9.46933e-09
9.66565e-09
9.83716e-09
1.00219e-08
1.00631e-08
1.01513e-08
1.02826e-08
1.04501e-08
1.06379e-08
1.08526e-08
1.10969e-08
1.12734e-08
1.14316e-08
1.16411e-08
1.18907e-08
1.21512e-08
1.2349e-08
1.25816e-08
1.28447e-08
1.31276e-08
1.34304e-08
1.37518e-08
1.4065e-08
1.43509e-08
1.46787e-08
1.5044e-08
1.54314e-08
1.58422e-08
1.62706e-08
1.67014e-08
1.71452e-08
1.75272e-08
1.79095e-08
1.82471e-08
1.83376e-08
1.83338e-08
1.78259e-08
1.5601e-08
1.83906e-08
1.18282e-08
9.91177e-09
9.32552e-09
9.18374e-09
9.34043e-09
9.53755e-09
9.81134e-09
1.01434e-08
1.04538e-08
1.07452e-08
1.10861e-08
1.14649e-08
1.1881e-08
1.228e-08
1.22608e-08
1.21818e-08
1.21545e-08
1.21761e-08
1.2241e-08
1.23446e-08
1.24884e-08
1.26722e-08
1.28173e-08
1.29265e-08
1.30893e-08
1.32994e-08
1.35526e-08
1.37879e-08
1.39585e-08
1.41546e-08
1.43738e-08
1.46117e-08
1.48647e-08
1.51294e-08
1.53883e-08
1.56583e-08
1.59568e-08
1.62796e-08
1.66262e-08
1.69771e-08
1.73215e-08
1.76626e-08
1.79335e-08
1.82101e-08
1.84157e-08
1.83648e-08
1.82501e-08
1.74894e-08
1.50227e-08
1.58877e-08
1.43615e-08
1.2688e-08
1.22094e-08
1.19838e-08
1.21081e-08
1.22542e-08
1.24426e-08
1.26748e-08
1.28978e-08
1.31346e-08
1.341e-08
1.37252e-08
1.40695e-08
1.44469e-08
1.48346e-08
1.46219e-08
1.44558e-08
1.43528e-08
1.43024e-08
1.42992e-08
1.43402e-08
1.44223e-08
1.45104e-08
1.45713e-08
1.46776e-08
1.48311e-08
1.50241e-08
1.52525e-08
1.54147e-08
1.55327e-08
1.56698e-08
1.58279e-08
1.60042e-08
1.61853e-08
1.63726e-08
1.6578e-08
1.68141e-08
1.70653e-08
1.73304e-08
1.7587e-08
1.78346e-08
1.80662e-08
1.82151e-08
1.83941e-08
1.84367e-08
1.82678e-08
1.8011e-08
1.70218e-08
1.43649e-08
8.56391e-09
1.20223e-08
1.16457e-08
1.25852e-08
1.33241e-08
1.38141e-08
1.42596e-08
1.45785e-08
1.48697e-08
1.51526e-08
1.54157e-08
1.56847e-08
1.59697e-08
1.62679e-08
1.65896e-08
1.69437e-08
1.71394e-08
1.68453e-08
1.66166e-08
1.64408e-08
1.63139e-08
1.62378e-08
1.62058e-08
1.62073e-08
1.62229e-08
1.62759e-08
1.63703e-08
1.64902e-08
1.66443e-08
1.68192e-08
1.68659e-08
1.69198e-08
1.69862e-08
1.70699e-08
1.71592e-08
1.7261e-08
1.7373e-08
1.75267e-08
1.76964e-08
1.78715e-08
1.80304e-08
1.81684e-08
1.8283e-08
1.83151e-08
1.8374e-08
1.82715e-08
1.79772e-08
1.76106e-08
1.64214e-08
1.36687e-08
2.74355e-09
4.6e-09
7.55824e-09
1.0054e-08
1.21259e-08
1.36563e-08
1.47448e-08
1.55346e-08
1.62631e-08
1.69039e-08
1.74271e-08
1.78582e-08
1.82175e-08
1.85535e-08
1.88681e-08
1.91642e-08
1.9491e-08
1.91716e-08
1.88247e-08
1.8524e-08
1.8269e-08
1.8062e-08
1.78925e-08
1.77608e-08
1.77165e-08
1.77144e-08
1.77462e-08
1.77982e-08
1.7878e-08
1.79746e-08
1.80238e-08
1.79887e-08
1.79723e-08
1.79682e-08
1.79804e-08
1.79884e-08
1.80048e-08
1.80137e-08
1.8083e-08
1.81717e-08
1.82382e-08
1.82741e-08
1.82732e-08
1.82065e-08
1.81544e-08
1.79086e-08
1.7536e-08
1.70465e-08
1.57204e-08
1.28907e-08
2.66216e-10
1.0918e-09
2.57205e-09
5.85713e-09
8.95408e-09
1.13829e-08
1.33224e-08
1.48262e-08
1.60353e-08
1.70136e-08
1.79919e-08
1.87653e-08
1.94013e-08
1.99515e-08
2.04273e-08
2.08458e-08
2.12294e-08
2.09128e-08
2.04996e-08
2.01211e-08
1.97809e-08
1.94831e-08
1.92189e-08
1.89921e-08
1.88863e-08
1.88488e-08
1.88269e-08
1.88252e-08
1.88428e-08
1.88684e-08
1.89009e-08
1.87949e-08
1.86883e-08
1.86024e-08
1.85206e-08
1.84504e-08
1.83774e-08
1.8314e-08
1.82221e-08
1.81945e-08
1.81709e-08
1.81153e-08
1.80095e-08
1.78497e-08
1.76988e-08
1.73187e-08
1.68737e-08
1.63093e-08
1.4985e-08
1.20354e-08
1.08526e-10
3.93566e-10
8.00531e-10
1.82799e-09
3.9754e-09
7.26489e-09
1.00807e-08
1.2223e-08
1.40811e-08
1.56041e-08
1.68066e-08
1.78318e-08
1.86926e-08
1.94086e-08
2.00893e-08
2.09179e-08
2.13508e-08
2.12111e-08
2.09704e-08
2.07077e-08
2.04336e-08
2.01651e-08
1.99094e-08
1.96683e-08
1.95211e-08
1.94679e-08
1.94184e-08
1.93747e-08
1.93382e-08
1.93103e-08
1.92917e-08
1.91461e-08
1.89875e-08
1.88409e-08
1.86973e-08
1.85534e-08
1.84158e-08
1.82619e-08
1.81077e-08
1.79356e-08
1.77673e-08
1.76358e-08
1.74297e-08
1.71818e-08
1.69323e-08
1.64633e-08
1.59826e-08
1.53686e-08
1.40395e-08
1.10538e-08
4.94121e-11
1.84997e-10
3.528e-10
6.40649e-10
1.23684e-09
2.46012e-09
4.38982e-09
6.87836e-09
9.50195e-09
1.19012e-08
1.38895e-08
1.54178e-08
1.67171e-08
1.76433e-08
1.83071e-08
1.88723e-08
1.92271e-08
1.94328e-08
1.95548e-08
1.9598e-08
1.95702e-08
1.9497e-08
1.93972e-08
1.92825e-08
1.9197e-08
1.91798e-08
1.91524e-08
1.91184e-08
1.90796e-08
1.90398e-08
1.89916e-08
1.88211e-08
1.86526e-08
1.84775e-08
1.82977e-08
1.81181e-08
1.79301e-08
1.77251e-08
1.75131e-08
1.72794e-08
1.70323e-08
1.67593e-08
1.64601e-08
1.61477e-08
1.58121e-08
1.52973e-08
1.48265e-08
1.41967e-08
1.28307e-08
9.92194e-09
2.69871e-11
1.00481e-10
1.93559e-10
3.16879e-10
5.1173e-10
8.26788e-10
1.37073e-09
2.30376e-09
3.70817e-09
5.41277e-09
7.25094e-09
9.04336e-09
1.06662e-08
1.20587e-08
1.32522e-08
1.42698e-08
1.51023e-08
1.5761e-08
1.62949e-08
1.66984e-08
1.69974e-08
1.7212e-08
1.73621e-08
1.74559e-08
1.75229e-08
1.76001e-08
1.76544e-08
1.76904e-08
1.77116e-08
1.77193e-08
1.76393e-08
1.75242e-08
1.73942e-08
1.72524e-08
1.70869e-08
1.6909e-08
1.6714e-08
1.65041e-08
1.6268e-08
1.60165e-08
1.57401e-08
1.54371e-08
1.50935e-08
1.47292e-08
1.43356e-08
1.38273e-08
1.33822e-08
1.26953e-08
1.13612e-08
8.63398e-09
1.69269e-11
6.133e-11
1.16832e-10
1.87545e-10
2.76303e-10
3.95559e-10
5.63257e-10
8.14529e-10
1.20195e-09
1.7949e-09
2.64046e-09
3.69081e-09
4.86531e-09
6.06727e-09
7.25818e-09
8.39057e-09
9.44007e-09
1.03893e-08
1.12411e-08
1.20034e-08
1.26549e-08
1.31894e-08
1.36545e-08
1.40239e-08
1.43126e-08
1.4548e-08
1.47536e-08
1.49297e-08
1.50276e-08
1.50833e-08
1.51148e-08
1.51177e-08
1.50886e-08
1.5032e-08
1.4935e-08
1.48198e-08
1.46712e-08
1.44938e-08
1.42863e-08
1.40486e-08
1.3786e-08
1.34963e-08
1.31669e-08
1.28217e-08
1.24393e-08
1.19838e-08
1.15782e-08
1.08608e-08
9.66973e-09
7.25921e-09
1.1436e-11
4.02388e-11
7.52372e-11
1.17423e-10
1.68922e-10
2.32553e-10
3.07334e-10
4.05694e-10
5.34364e-10
7.09419e-10
9.42848e-10
1.24143e-09
1.64992e-09
2.18103e-09
2.82739e-09
3.56538e-09
4.36285e-09
5.1894e-09
6.01313e-09
6.80515e-09
7.55064e-09
8.23806e-09
8.86405e-09
9.3712e-09
9.816e-09
1.02141e-08
1.05741e-08
1.08912e-08
1.11665e-08
1.13979e-08
1.1584e-08
1.17334e-08
1.18384e-08
1.19008e-08
1.19173e-08
1.1899e-08
1.18349e-08
1.17423e-08
1.16155e-08
1.14495e-08
1.12585e-08
1.10328e-08
1.07744e-08
1.0491e-08
1.01865e-08
9.82622e-09
9.4655e-09
8.80972e-09
7.8415e-09
5.83277e-09
8.01323e-12
2.75495e-11
5.0817e-11
7.80905e-11
1.09973e-10
1.47459e-10
1.92032e-10
2.4421e-10
3.03991e-10
3.78096e-10
4.57109e-10
5.48047e-10
6.64589e-10
8.1501e-10
1.01129e-09
1.26408e-09
1.58289e-09
1.97065e-09
2.41952e-09
2.91665e-09
3.42938e-09
3.93451e-09
4.43603e-09
4.92552e-09
5.39441e-09
5.84093e-09
6.26082e-09
6.65389e-09
7.01763e-09
7.34724e-09
7.64396e-09
7.90098e-09
8.11613e-09
8.28893e-09
8.41711e-09
8.50551e-09
8.55121e-09
8.56274e-09
8.53658e-09
8.4769e-09
8.3942e-09
8.27174e-09
8.12541e-09
7.95198e-09
7.75928e-09
7.52135e-09
7.24726e-09
6.75827e-09
6.01669e-09
4.41343e-09
5.69533e-12
1.92716e-11
3.52196e-11
5.36461e-11
7.47466e-11
9.8838e-11
1.26383e-10
1.58021e-10
1.94606e-10
2.33748e-10
2.68264e-10
3.07389e-10
3.52366e-10
4.04723e-10
4.67657e-10
5.43146e-10
6.39173e-10
7.56721e-10
8.90771e-10
1.0483e-09
1.2374e-09
1.45963e-09
1.71044e-09
1.98746e-09
2.2863e-09
2.59857e-09
2.91893e-09
3.24731e-09
3.56729e-09
3.87849e-09
4.17373e-09
4.44415e-09
4.68814e-09
4.90421e-09
5.09154e-09
5.24774e-09
5.37622e-09
5.47598e-09
5.54602e-09
5.58743e-09
5.60694e-09
5.59503e-09
5.56628e-09
5.51396e-09
5.43648e-09
5.31897e-09
5.16431e-09
4.85674e-09
4.30462e-09
3.07789e-09
4.04333e-12
1.35519e-11
2.46368e-11
3.73661e-11
5.1825e-11
6.8132e-11
8.64494e-11
1.06989e-10
1.28977e-10
1.49499e-10
1.71132e-10
1.94008e-10
2.17119e-10
2.41243e-10
2.67951e-10
2.97638e-10
3.30875e-10
3.64871e-10
4.00382e-10
4.40749e-10
4.92094e-10
5.51282e-10
6.25261e-10
7.10875e-10
8.17143e-10
9.41618e-10
1.08384e-09
1.24367e-09
1.41659e-09
1.60023e-09
1.78981e-09
1.98244e-09
2.1691e-09
2.34743e-09
2.52685e-09
2.69391e-09
2.84865e-09
2.98687e-09
3.10779e-09
3.21473e-09
3.30475e-09
3.37458e-09
3.42983e-09
3.46087e-09
3.47362e-09
3.45652e-09
3.39644e-09
3.20937e-09
2.79831e-09
1.91906e-09
2.82708e-12
9.4385e-12
1.7138e-11
2.59849e-11
3.60365e-11
4.73503e-11
5.99928e-11
7.26369e-11
8.54473e-11
9.86836e-11
1.1229e-10
1.26232e-10
1.40525e-10
1.55206e-10
1.70346e-10
1.85493e-10
1.98966e-10
2.09223e-10
2.19648e-10
2.30382e-10
2.41426e-10
2.55779e-10
2.72578e-10
2.91496e-10
3.1543e-10
3.47025e-10
3.82521e-10
4.3115e-10
4.87416e-10
5.59587e-10
6.37072e-10
7.30963e-10
8.28521e-10
9.37015e-10
1.04629e-09
1.16153e-09
1.27367e-09
1.39497e-09
1.51069e-09
1.62205e-09
1.73112e-09
1.82391e-09
1.9058e-09
1.97126e-09
2.01924e-09
2.04701e-09
2.0295e-09
1.8941e-09
1.61326e-09
1.02231e-09
1.91094e-12
6.39567e-12
1.16573e-11
1.77546e-11
2.45142e-11
3.18175e-11
3.96528e-11
4.79267e-11
5.65382e-11
6.53915e-11
7.44021e-11
8.34903e-11
9.25987e-11
1.01685e-10
1.10722e-10
1.1882e-10
1.23828e-10
1.27925e-10
1.31064e-10
1.33294e-10
1.34847e-10
1.35734e-10
1.36019e-10
1.35813e-10
1.35463e-10
1.43691e-10
1.54851e-10
1.67648e-10
1.82657e-10
2.05464e-10
2.33308e-10
2.65471e-10
3.07978e-10
3.54475e-10
4.08162e-10
4.68819e-10
5.31763e-10
6.03687e-10
6.7751e-10
7.50408e-10
8.27151e-10
9.02365e-10
9.73418e-10
1.03004e-09
1.07374e-09
1.09451e-09
1.06276e-09
9.6451e-10
7.77085e-10
4.28454e-10
1.16389e-12
3.93801e-12
7.22215e-12
1.10265e-11
1.53315e-11
2.00941e-11
2.5254e-11
3.07388e-11
3.64708e-11
4.23671e-11
4.83525e-11
5.43548e-11
6.03e-11
6.61291e-11
7.07387e-11
7.37863e-11
7.6006e-11
7.7309e-11
7.76046e-11
7.68039e-11
7.47919e-11
7.14652e-11
6.67365e-11
6.72253e-11
6.77333e-11
6.82001e-11
6.89775e-11
7.04534e-11
7.31102e-11
7.9278e-11
8.96207e-11
1.0307e-10
1.19593e-10
1.41176e-10
1.6734e-10
1.96253e-10
2.27602e-10
2.63757e-10
3.0235e-10
3.4145e-10
3.80644e-10
4.18253e-10
4.52057e-10
4.80334e-10
5.01075e-10
4.99394e-10
4.71344e-10
4.03963e-10
2.85206e-10
1.42715e-10
5.9e-13
2.10001e-12
3.9847e-12
6.2456e-12
8.86368e-12
1.18045e-11
1.50266e-11
1.84806e-11
2.21111e-11
2.58605e-11
2.967e-11
3.34859e-11
3.67298e-11
3.92177e-11
4.11982e-11
4.25849e-11
4.32906e-11
4.32196e-11
4.22705e-11
4.03344e-11
3.73062e-11
3.59511e-11
3.47321e-11
3.30555e-11
3.1001e-11
2.8718e-11
2.66198e-11
2.57523e-11
2.57178e-11
2.70486e-11
3.03333e-11
3.57347e-11
4.31704e-11
5.35672e-11
6.67248e-11
8.16769e-11
9.81194e-11
1.15592e-10
1.33571e-10
1.51337e-10
1.68156e-10
1.82586e-10
1.92888e-10
1.96577e-10
1.9894e-10
1.91661e-10
1.68391e-10
1.29402e-10
8.02723e-11
3.76882e-11
1.81018e-13
7.99346e-13
1.72127e-12
2.87645e-12
4.24217e-12
5.798e-12
7.53023e-12
9.4127e-12
1.12612e-11
1.30289e-11
1.47141e-11
1.62546e-11
1.7586e-11
1.86432e-11
1.93548e-11
1.96398e-11
1.94107e-11
1.85822e-11
1.77128e-11
1.7293e-11
1.65013e-11
1.53725e-11
1.37982e-11
1.18651e-11
9.66318e-12
7.17227e-12
6.06082e-12
6.46695e-12
7.04561e-12
7.8298e-12
8.92212e-12
1.07074e-11
1.26933e-11
1.48363e-11
2.11613e-11
2.86491e-11
3.68398e-11
4.53664e-11
5.35647e-11
6.05878e-11
6.61939e-11
6.95309e-11
7.05454e-11
6.71828e-11
6.02893e-11
5.37334e-11
4.16286e-11
2.81318e-11
1.57126e-11
6.97017e-12
6.6258e-15
1.25619e-13
2.97969e-13
4.77116e-13
6.71205e-13
8.6743e-13
1.06203e-12
1.30149e-12
1.56622e-12
1.82328e-12
2.05868e-12
2.25713e-12
2.40329e-12
2.4858e-12
2.49655e-12
2.40373e-12
2.17458e-12
1.78793e-12
1.31838e-12
1.32846e-12
1.32267e-12
1.30102e-12
1.26597e-12
1.22433e-12
1.18599e-12
1.16371e-12
1.17466e-12
1.23357e-12
1.34701e-12
1.52122e-12
1.76119e-12
2.05897e-12
2.40045e-12
2.77162e-12
3.15411e-12
3.52411e-12
3.85454e-12
4.11725e-12
4.27962e-12
4.31504e-12
4.20431e-12
5.51296e-12
6.48069e-12
6.5993e-12
5.99654e-12
4.88208e-12
3.46437e-12
2.19441e-12
1.16337e-12
6.24763e-13
)
;

boundaryField
{
    AXIS
    {
        type            empty;
    }
    OUTLET
    {
        type            calculated;
        value           nonuniform List<scalar> 
25
(
1.70323e-08
1.69509e-08
1.67722e-08
1.64866e-08
1.60969e-08
1.5601e-08
1.50227e-08
1.43649e-08
1.36687e-08
1.28907e-08
1.20354e-08
1.10538e-08
9.92194e-09
8.63398e-09
7.25921e-09
5.83277e-09
4.41343e-09
3.07789e-09
1.91906e-09
1.02231e-09
4.28454e-10
1.42715e-10
3.76882e-11
6.97017e-12
6.24763e-13
)
;
    }
    COFLOW
    {
        type            calculated;
        value           uniform 0;
    }
    PILOT
    {
        type            calculated;
        value           uniform 5.9895e-09;
    }
    FUEL
    {
        type            calculated;
        value           uniform 0;
    }
    WALL
    {
        type            calculated;
        value           nonuniform List<scalar> 
50
(
6.6258e-15
1.25619e-13
2.97969e-13
4.77116e-13
6.71205e-13
8.6743e-13
1.06203e-12
1.30149e-12
1.56622e-12
1.82328e-12
2.05868e-12
2.25713e-12
2.40329e-12
2.4858e-12
2.49655e-12
2.40373e-12
2.17458e-12
1.78793e-12
1.31838e-12
1.32846e-12
1.32267e-12
1.30102e-12
1.26597e-12
1.22433e-12
1.18599e-12
1.16371e-12
1.17466e-12
1.23357e-12
1.34701e-12
1.52122e-12
1.76119e-12
2.05897e-12
2.40045e-12
2.77162e-12
3.15411e-12
3.52411e-12
3.85454e-12
4.11725e-12
4.27962e-12
4.31504e-12
4.20431e-12
5.51296e-12
6.48069e-12
6.5993e-12
5.99654e-12
4.88208e-12
3.46437e-12
2.19441e-12
1.16337e-12
6.24763e-13
)
;
    }
    front
    {
        type            wedge;
    }
    back
    {
        type            wedge;
    }
}


// ************************************************************************* //
