/*--------------------------------*- C++ -*----------------------------------*\
| =========                 |                                                 |
| \\      /  F ield         | OpenFOAM: The Open Source CFD Toolbox           |
|  \\    /   O peration     | Version:  2.4.x                                 |
|   \\  /    A nd           | Web:      www.OpenFOAM.org                      |
|    \\/     M anipulation  |                                                 |
\*---------------------------------------------------------------------------*/
FoamFile
{
    version     2.0;
    format      ascii;
    class       volScalarField;
    location    "0.1";
    object      HO2;
}
// * * * * * * * * * * * * * * * * * * * * * * * * * * * * * * * * * * * * * //

dimensions      [0 0 0 0 0 0 0];

internalField   nonuniform List<scalar> 
1250
(
7.28054e-08
2.59014e-07
4.39197e-07
6.05151e-07
7.72126e-07
9.45035e-07
1.1266e-06
1.31589e-06
1.51621e-06
1.75407e-06
2.0029e-06
2.26156e-06
2.52146e-06
2.77653e-06
3.02175e-06
3.26386e-06
3.5095e-06
3.76546e-06
4.00428e-06
4.22926e-06
4.4343e-06
4.62325e-06
4.79079e-06
4.96451e-06
5.10525e-06
5.19292e-06
5.23136e-06
5.21366e-06
5.15107e-06
5.04221e-06
4.8929e-06
4.71101e-06
4.49054e-06
4.22709e-06
3.94202e-06
3.64252e-06
3.33885e-06
3.03641e-06
2.74469e-06
2.46442e-06
2.20185e-06
1.95941e-06
1.74366e-06
1.54998e-06
1.38756e-06
1.23849e-06
1.13583e-06
1.11948e-06
1.19525e-06
1.41429e-06
8.64818e-08
2.93127e-07
4.7698e-07
6.45556e-07
8.15194e-07
9.91541e-07
1.17622e-06
1.3663e-06
1.59419e-06
1.83574e-06
2.08559e-06
2.34269e-06
2.59997e-06
2.84894e-06
3.09025e-06
3.32595e-06
3.56766e-06
3.81556e-06
4.04899e-06
4.26562e-06
4.46544e-06
4.6472e-06
4.80758e-06
4.97281e-06
5.10515e-06
5.18762e-06
5.21719e-06
5.19513e-06
5.12685e-06
5.01373e-06
4.86203e-06
4.67757e-06
4.45972e-06
4.19713e-06
3.91324e-06
3.61605e-06
3.31504e-06
3.01618e-06
2.72752e-06
2.45103e-06
2.19167e-06
1.95386e-06
1.74049e-06
1.55025e-06
1.38982e-06
1.24338e-06
1.14223e-06
1.12795e-06
1.20718e-06
1.42766e-06
1.30582e-07
3.89559e-07
5.78568e-07
7.52378e-07
9.28566e-07
1.10972e-06
1.31196e-06
1.5482e-06
1.79147e-06
2.03436e-06
2.28443e-06
2.53456e-06
2.77953e-06
3.01583e-06
3.24561e-06
3.46666e-06
3.69665e-06
3.92844e-06
4.14573e-06
4.347e-06
4.53223e-06
4.69782e-06
4.84253e-06
4.98775e-06
5.10533e-06
5.17579e-06
5.18937e-06
5.15648e-06
5.07644e-06
4.95411e-06
4.79728e-06
4.60652e-06
4.39158e-06
4.13252e-06
3.85093e-06
3.55867e-06
3.26307e-06
2.97258e-06
2.68945e-06
2.42169e-06
2.16798e-06
1.93996e-06
1.73191e-06
1.54909e-06
1.39315e-06
1.25301e-06
1.15864e-06
1.14842e-06
1.23754e-06
1.4567e-06
2.69924e-07
6.02882e-07
7.87938e-07
9.61796e-07
1.16786e-06
1.41599e-06
1.66749e-06
1.91536e-06
2.1564e-06
2.39241e-06
2.62837e-06
2.85436e-06
3.07369e-06
3.28578e-06
3.49009e-06
3.68469e-06
3.89423e-06
4.09895e-06
4.29164e-06
4.46874e-06
4.62779e-06
4.76841e-06
4.88669e-06
5.00443e-06
5.0968e-06
5.15631e-06
5.15129e-06
5.09832e-06
5.00194e-06
4.86909e-06
4.70072e-06
4.50551e-06
4.28785e-06
4.03918e-06
3.76212e-06
3.4763e-06
3.1903e-06
2.90856e-06
2.63576e-06
2.37792e-06
2.13632e-06
1.91933e-06
1.72173e-06
1.54867e-06
1.4015e-06
1.27132e-06
1.1828e-06
1.17711e-06
1.28059e-06
1.50126e-06
8.32301e-07
1.11962e-06
1.25105e-06
1.5559e-06
1.85739e-06
2.12809e-06
2.36183e-06
2.58315e-06
2.78541e-06
2.98151e-06
3.16249e-06
3.33615e-06
3.50363e-06
3.66555e-06
3.82534e-06
3.98365e-06
4.15803e-06
4.32609e-06
4.47993e-06
4.61972e-06
4.74192e-06
4.84749e-06
4.93536e-06
5.01629e-06
5.07724e-06
5.10758e-06
5.1018e-06
5.02512e-06
4.90957e-06
4.75993e-06
4.58208e-06
4.38024e-06
4.15813e-06
3.92219e-06
3.65219e-06
3.37607e-06
3.09982e-06
2.82939e-06
2.56922e-06
2.32503e-06
2.09928e-06
1.89447e-06
1.71042e-06
1.549e-06
1.41334e-06
1.29489e-06
1.21712e-06
1.21342e-06
1.33832e-06
1.55979e-06
3.41697e-06
2.71287e-06
3.00622e-06
3.24484e-06
3.42116e-06
3.55159e-06
3.63517e-06
3.71997e-06
3.80008e-06
3.87981e-06
3.93753e-06
4.00622e-06
4.08136e-06
4.17182e-06
4.26866e-06
4.37096e-06
4.48985e-06
4.60024e-06
4.7015e-06
4.79243e-06
4.86854e-06
4.93133e-06
4.98004e-06
5.02045e-06
5.04129e-06
5.03706e-06
5.00711e-06
4.93973e-06
4.80229e-06
4.63673e-06
4.44561e-06
4.23582e-06
4.01162e-06
3.77751e-06
3.53074e-06
3.26193e-06
2.99733e-06
2.73963e-06
2.49677e-06
2.26966e-06
2.05927e-06
1.87024e-06
1.70028e-06
1.55436e-06
1.43104e-06
1.32606e-06
1.25852e-06
1.26365e-06
1.40728e-06
1.63186e-06
6.08026e-06
6.70777e-06
6.50258e-06
6.18742e-06
5.90006e-06
5.69555e-06
5.45645e-06
5.28017e-06
5.15945e-06
5.05037e-06
4.94465e-06
4.87727e-06
4.83788e-06
4.82213e-06
4.82513e-06
4.84858e-06
4.88338e-06
4.91856e-06
4.95165e-06
4.98037e-06
5.00048e-06
5.01368e-06
5.01877e-06
5.0131e-06
4.99152e-06
4.95012e-06
4.88881e-06
4.80825e-06
4.68414e-06
4.49961e-06
4.29724e-06
4.08143e-06
3.85597e-06
3.62372e-06
3.38959e-06
3.14281e-06
2.89146e-06
2.65138e-06
2.42366e-06
2.2135e-06
2.02004e-06
1.84841e-06
1.69632e-06
1.56563e-06
1.45629e-06
1.36477e-06
1.31127e-06
1.32429e-06
1.48489e-06
1.71362e-06
3.51371e-06
8.52724e-06
9.37936e-06
9.11198e-06
8.55371e-06
8.0567e-06
7.53643e-06
7.10138e-06
6.75689e-06
6.39556e-06
6.08953e-06
5.85711e-06
5.6836e-06
5.55487e-06
5.46275e-06
5.39711e-06
5.32526e-06
5.26689e-06
5.21835e-06
5.17511e-06
5.13428e-06
5.09361e-06
5.05122e-06
5.00227e-06
4.93548e-06
4.85358e-06
4.75832e-06
4.65026e-06
4.53018e-06
4.35651e-06
4.1436e-06
3.92275e-06
3.69659e-06
3.46778e-06
3.24245e-06
3.02102e-06
2.7908e-06
2.56629e-06
2.35664e-06
2.16434e-06
1.99013e-06
1.83591e-06
1.69983e-06
1.58533e-06
1.48857e-06
1.41567e-06
1.37262e-06
1.39656e-06
1.57209e-06
1.80227e-06
2.33006e-06
6.58659e-06
8.72006e-06
9.92418e-06
1.00581e-05
9.76321e-06
9.28892e-06
8.76425e-06
8.27345e-06
7.69282e-06
7.22068e-06
6.8446e-06
6.54649e-06
6.31108e-06
6.12826e-06
5.96243e-06
5.80212e-06
5.63824e-06
5.49968e-06
5.37894e-06
5.27114e-06
5.17291e-06
5.08075e-06
4.99087e-06
4.87676e-06
4.75523e-06
4.62701e-06
4.49273e-06
4.35213e-06
4.20593e-06
3.98931e-06
3.76539e-06
3.54228e-06
3.32093e-06
3.10588e-06
2.89666e-06
2.69466e-06
2.49164e-06
2.30099e-06
2.1272e-06
1.97027e-06
1.8347e-06
1.7157e-06
1.61775e-06
1.53765e-06
1.47767e-06
1.4471e-06
1.4793e-06
1.66694e-06
1.89554e-06
1.37428e-06
2.32209e-06
4.87158e-06
7.48723e-06
9.15048e-06
9.85134e-06
9.96764e-06
9.73772e-06
9.32675e-06
8.78708e-06
8.31385e-06
7.90416e-06
7.564e-06
7.28662e-06
7.04739e-06
6.71937e-06
6.43193e-06
6.13369e-06
5.87727e-06
5.65626e-06
5.46232e-06
5.28944e-06
5.1316e-06
4.985e-06
4.82641e-06
4.66552e-06
4.50537e-06
4.34668e-06
4.18785e-06
4.02939e-06
3.84364e-06
3.62015e-06
3.40078e-06
3.18822e-06
2.98279e-06
2.78884e-06
2.60393e-06
2.43112e-06
2.26157e-06
2.10562e-06
1.96628e-06
1.84871e-06
1.74706e-06
1.6626e-06
1.59631e-06
1.54934e-06
1.5279e-06
1.57088e-06
1.76307e-06
1.98305e-06
1.05504e-07
3.96871e-07
1.32052e-06
3.58825e-06
6.07088e-06
7.89712e-06
8.98496e-06
9.46032e-06
9.42283e-06
9.11943e-06
8.83599e-06
8.48914e-06
8.15871e-06
7.8592e-06
7.57864e-06
7.18663e-06
6.84562e-06
6.47132e-06
6.13775e-06
5.84802e-06
5.59387e-06
5.36895e-06
5.16724e-06
4.98406e-06
4.78938e-06
4.59065e-06
4.40162e-06
4.21995e-06
4.04405e-06
3.87449e-06
3.70708e-06
3.48644e-06
3.27568e-06
3.07292e-06
2.88247e-06
2.70254e-06
2.53507e-06
2.37816e-06
2.23796e-06
2.10382e-06
1.98191e-06
1.88035e-06
1.7939e-06
1.72276e-06
1.66857e-06
1.63393e-06
1.62267e-06
1.67275e-06
1.86199e-06
2.05912e-06
2.8749e-08
1.14857e-07
3.07214e-07
8.68864e-07
2.25195e-06
4.38673e-06
6.26657e-06
7.49427e-06
8.21958e-06
8.5097e-06
8.5669e-06
8.43392e-06
8.25368e-06
8.03269e-06
7.73901e-06
7.41574e-06
7.07022e-06
6.67908e-06
6.31615e-06
5.98909e-06
5.69557e-06
5.4321e-06
5.19538e-06
4.98107e-06
4.76047e-06
4.5299e-06
4.31558e-06
4.11492e-06
3.92611e-06
3.74735e-06
3.5771e-06
3.37078e-06
3.17086e-06
2.98218e-06
2.80623e-06
2.64294e-06
2.49104e-06
2.35529e-06
2.23057e-06
2.12035e-06
2.02053e-06
1.93262e-06
1.86101e-06
1.8035e-06
1.76112e-06
1.73387e-06
1.72986e-06
1.78732e-06
1.96246e-06
2.11948e-06
1.2811e-08
5.15049e-08
1.11415e-07
2.29585e-07
5.14183e-07
1.17304e-06
2.41175e-06
3.96359e-06
5.40322e-06
6.47685e-06
7.16561e-06
7.51124e-06
7.67185e-06
7.68643e-06
7.45138e-06
7.17818e-06
6.86193e-06
6.53648e-06
6.2267e-06
5.93008e-06
5.65437e-06
5.39725e-06
5.1602e-06
4.94106e-06
4.71644e-06
4.46976e-06
4.24186e-06
4.03066e-06
3.83441e-06
3.65169e-06
3.47917e-06
3.27847e-06
3.09191e-06
2.91998e-06
2.76207e-06
2.61626e-06
2.48325e-06
2.36421e-06
2.25623e-06
2.16307e-06
2.07986e-06
2.01066e-06
1.95092e-06
1.90426e-06
1.87108e-06
1.84713e-06
1.84495e-06
1.90727e-06
2.05927e-06
2.15201e-06
7.26956e-09
2.77966e-08
5.63432e-08
9.64045e-08
1.63151e-07
2.90838e-07
5.55575e-07
1.06262e-06
1.86662e-06
2.87571e-06
3.86185e-06
4.6918e-06
5.31665e-06
5.72882e-06
5.94397e-06
6.02126e-06
5.99719e-06
5.88385e-06
5.7416e-06
5.56709e-06
5.37327e-06
5.17243e-06
4.97797e-06
4.78717e-06
4.58053e-06
4.35224e-06
4.13799e-06
3.93735e-06
3.74954e-06
3.57466e-06
3.38808e-06
3.20897e-06
3.04349e-06
2.89093e-06
2.75227e-06
2.62529e-06
2.51051e-06
2.40731e-06
2.3157e-06
2.2352e-06
2.16417e-06
2.10457e-06
2.05338e-06
2.01377e-06
1.98409e-06
1.96118e-06
1.96444e-06
2.01958e-06
2.12909e-06
2.13416e-06
4.61624e-09
1.69012e-08
3.26252e-08
5.29695e-08
7.91815e-08
1.16244e-07
1.73545e-07
2.71745e-07
4.45894e-07
7.40042e-07
1.17783e-06
1.74333e-06
2.36199e-06
2.97681e-06
3.50085e-06
3.9121e-06
4.21217e-06
4.40677e-06
4.51958e-06
4.56797e-06
4.56061e-06
4.5075e-06
4.43266e-06
4.33157e-06
4.19537e-06
4.04287e-06
3.89139e-06
3.74072e-06
3.57972e-06
3.41951e-06
3.26692e-06
3.12362e-06
2.98934e-06
2.86435e-06
2.74922e-06
2.64263e-06
2.54605e-06
2.45852e-06
2.37978e-06
2.31045e-06
2.24836e-06
2.19484e-06
2.14772e-06
2.10927e-06
2.07837e-06
2.05506e-06
2.05791e-06
2.08835e-06
2.14332e-06
2.04651e-06
3.11123e-09
1.09844e-08
2.06143e-08
3.22325e-08
4.64005e-08
6.39964e-08
8.49585e-08
1.13724e-07
1.53917e-07
2.14172e-07
3.09196e-07
4.6053e-07
6.78866e-07
9.67265e-07
1.30917e-06
1.67554e-06
2.03906e-06
2.37632e-06
2.66587e-06
2.90435e-06
3.08701e-06
3.21796e-06
3.30468e-06
3.35544e-06
3.3698e-06
3.35462e-06
3.31888e-06
3.2603e-06
3.18887e-06
3.10743e-06
3.02057e-06
2.93322e-06
2.84572e-06
2.75996e-06
2.67711e-06
2.59834e-06
2.52446e-06
2.45483e-06
2.39023e-06
2.33118e-06
2.27664e-06
2.22744e-06
2.18179e-06
2.14167e-06
2.10939e-06
2.08327e-06
2.0735e-06
2.0709e-06
2.06259e-06
1.86537e-06
2.15447e-09
7.4109e-09
1.36655e-08
2.09578e-08
2.94045e-08
3.92379e-08
5.08589e-08
6.44131e-08
7.98807e-08
9.95602e-08
1.26912e-07
1.63746e-07
2.15265e-07
2.8688e-07
3.84328e-07
5.13066e-07
6.751e-07
8.66752e-07
1.07919e-06
1.3e-06
1.5213e-06
1.73598e-06
1.93111e-06
2.09941e-06
2.23733e-06
2.3454e-06
2.42638e-06
2.48182e-06
2.51571e-06
2.52771e-06
2.52628e-06
2.51402e-06
2.48864e-06
2.45756e-06
2.42076e-06
2.38064e-06
2.33836e-06
2.29526e-06
2.25196e-06
2.20877e-06
2.16681e-06
2.12586e-06
2.08657e-06
2.04906e-06
2.01807e-06
1.99087e-06
1.96517e-06
1.92875e-06
1.86723e-06
1.57979e-06
1.5049e-09
5.0893e-09
9.28359e-09
1.4092e-08
1.95347e-08
2.56611e-08
3.25621e-08
4.03841e-08
4.93465e-08
5.99018e-08
7.1947e-08
8.66118e-08
1.04719e-07
1.2708e-07
1.54562e-07
1.89649e-07
2.34183e-07
2.9082e-07
3.63228e-07
4.53311e-07
5.61334e-07
6.86075e-07
8.23425e-07
9.68236e-07
1.11352e-06
1.25506e-06
1.38835e-06
1.50954e-06
1.61635e-06
1.7038e-06
1.77359e-06
1.8284e-06
1.86841e-06
1.89555e-06
1.91135e-06
1.91873e-06
1.91697e-06
1.91064e-06
1.89898e-06
1.88328e-06
1.86494e-06
1.84329e-06
1.82135e-06
1.79671e-06
1.77227e-06
1.74601e-06
1.71576e-06
1.65963e-06
1.55702e-06
1.20175e-06
1.04652e-09
3.50431e-09
6.35599e-09
9.60339e-09
1.32487e-08
1.72997e-08
2.17746e-08
2.67046e-08
3.22557e-08
3.88574e-08
4.63895e-08
5.50207e-08
6.43257e-08
7.45434e-08
8.64587e-08
1.00399e-07
1.16814e-07
1.35745e-07
1.58648e-07
1.86619e-07
2.21012e-07
2.62984e-07
3.13785e-07
3.74301e-07
4.44262e-07
5.23514e-07
6.10365e-07
7.01619e-07
7.94298e-07
8.84638e-07
9.69786e-07
1.04686e-06
1.11684e-06
1.17918e-06
1.23274e-06
1.27899e-06
1.317e-06
1.34788e-06
1.37314e-06
1.38999e-06
1.40193e-06
1.40846e-06
1.41107e-06
1.40723e-06
1.39903e-06
1.38205e-06
1.3519e-06
1.28522e-06
1.1439e-06
7.8997e-07
7.15302e-10
2.38566e-09
4.32164e-09
6.52822e-09
9.0074e-09
1.17592e-08
1.47846e-08
1.82382e-08
2.21186e-08
2.64257e-08
3.12037e-08
3.65055e-08
4.23995e-08
4.89647e-08
5.62965e-08
6.40006e-08
7.1964e-08
8.0692e-08
9.07272e-08
1.02304e-07
1.15661e-07
1.31447e-07
1.50189e-07
1.72343e-07
1.98617e-07
2.29962e-07
2.65961e-07
3.07566e-07
3.53873e-07
4.03544e-07
4.56299e-07
5.10847e-07
5.6648e-07
6.21458e-07
6.7563e-07
7.27027e-07
7.76131e-07
8.19923e-07
8.6021e-07
8.94907e-07
9.23919e-07
9.48362e-07
9.67058e-07
9.7726e-07
9.77591e-07
9.68287e-07
9.36469e-07
8.58697e-07
7.09815e-07
4.26926e-07
4.72009e-10
1.5781e-09
2.8698e-09
4.35535e-09
6.06215e-09
8.00646e-09
1.01894e-08
1.26199e-08
1.53071e-08
1.82617e-08
2.14981e-08
2.50321e-08
2.88852e-08
3.30834e-08
3.76584e-08
4.25526e-08
4.7572e-08
5.3025e-08
5.89851e-08
6.50592e-08
7.19004e-08
7.96836e-08
8.8603e-08
9.88839e-08
1.10766e-07
1.22104e-07
1.36083e-07
1.52585e-07
1.71908e-07
1.9583e-07
2.22874e-07
2.5234e-07
2.85536e-07
3.20374e-07
3.56945e-07
3.94529e-07
4.31812e-07
4.68067e-07
5.02646e-07
5.34144e-07
5.62026e-07
5.85166e-07
6.02113e-07
6.09209e-07
6.0731e-07
5.92398e-07
5.49719e-07
4.67342e-07
3.47388e-07
1.80727e-07
2.95563e-10
1.00365e-09
1.85342e-09
2.85886e-09
4.02939e-09
5.37109e-09
6.88785e-09
8.58232e-09
1.04568e-08
1.25126e-08
1.47545e-08
1.71871e-08
1.98146e-08
2.26455e-08
2.55727e-08
2.85781e-08
3.17722e-08
3.51794e-08
3.88339e-08
4.27845e-08
4.70855e-08
5.18169e-08
5.70925e-08
6.06816e-08
6.49224e-08
7.0125e-08
7.64603e-08
8.4107e-08
9.32369e-08
1.05302e-07
1.2036e-07
1.37051e-07
1.55077e-07
1.75252e-07
1.96907e-07
2.18717e-07
2.4027e-07
2.61939e-07
2.82542e-07
3.00858e-07
3.16627e-07
3.28741e-07
3.3543e-07
3.36582e-07
3.25801e-07
3.0062e-07
2.56731e-07
1.98201e-07
1.29393e-07
6.36548e-08
1.60359e-10
5.73335e-10
1.09713e-09
1.74044e-09
2.50822e-09
3.40267e-09
4.4255e-09
5.57721e-09
6.85719e-09
8.26513e-09
9.80106e-09
1.14668e-08
1.32041e-08
1.49994e-08
1.68888e-08
1.88745e-08
2.09635e-08
2.31669e-08
2.55032e-08
2.7996e-08
3.06767e-08
3.24276e-08
3.39306e-08
3.55398e-08
3.7363e-08
3.95433e-08
4.22916e-08
4.67593e-08
5.23378e-08
5.91373e-08
6.71624e-08
7.61691e-08
8.58921e-08
9.71535e-08
1.09349e-07
1.21242e-07
1.32485e-07
1.42708e-07
1.51574e-07
1.58505e-07
1.63063e-07
1.6544e-07
1.64217e-07
1.57868e-07
1.43621e-07
1.22184e-07
9.56255e-08
6.73439e-08
3.92923e-08
1.80901e-08
5.36431e-11
2.38619e-10
5.22398e-10
8.90831e-10
1.34425e-09
1.88423e-09
2.51483e-09
3.23641e-09
4.03168e-09
4.89981e-09
5.84474e-09
6.86373e-09
7.95372e-09
9.10996e-09
1.03245e-08
1.1592e-08
1.29132e-08
1.42925e-08
1.54713e-08
1.62338e-08
1.69311e-08
1.76002e-08
1.82383e-08
1.89271e-08
1.9757e-08
2.07849e-08
2.19648e-08
2.35798e-08
2.57964e-08
2.87228e-08
3.26214e-08
3.82965e-08
4.45126e-08
5.10987e-08
5.69206e-08
6.22761e-08
6.69581e-08
7.0696e-08
7.3331e-08
7.47852e-08
7.42049e-08
7.15302e-08
6.70784e-08
6.04323e-08
5.13403e-08
3.93753e-08
2.72418e-08
1.69631e-08
9.0894e-09
3.94255e-09
2.19726e-12
4.4264e-11
1.24182e-10
2.43684e-10
4.05348e-10
6.109e-10
8.62777e-10
1.13917e-09
1.43874e-09
1.76594e-09
2.11576e-09
2.48206e-09
2.85768e-09
3.23509e-09
3.60212e-09
3.95017e-09
4.26633e-09
4.54135e-09
4.75559e-09
4.83755e-09
4.87258e-09
4.86208e-09
4.81604e-09
4.75892e-09
4.72504e-09
4.75745e-09
4.91239e-09
5.23621e-09
5.74734e-09
6.46196e-09
7.39159e-09
8.50243e-09
9.73946e-09
1.10488e-08
1.23629e-08
1.35971e-08
1.46577e-08
1.54503e-08
1.58658e-08
1.58229e-08
1.52617e-08
1.39445e-08
1.21373e-08
1.00556e-08
7.86213e-09
5.73375e-09
3.79464e-09
2.30314e-09
1.24984e-09
5.52549e-10
)
;

boundaryField
{
    AXIS
    {
        type            empty;
    }
    OUTLET
    {
        type            calculated;
        value           nonuniform List<scalar> 
25
(
1.41429e-06
1.42766e-06
1.4567e-06
1.50126e-06
1.55979e-06
1.63186e-06
1.71362e-06
1.80227e-06
1.89554e-06
1.98305e-06
2.05912e-06
2.11948e-06
2.15201e-06
2.13416e-06
2.04651e-06
1.86537e-06
1.57979e-06
1.20175e-06
7.8997e-07
4.26926e-07
1.80727e-07
6.36548e-08
1.80901e-08
3.94255e-09
5.52549e-10
)
;
    }
    COFLOW
    {
        type            calculated;
        value           uniform 0;
    }
    PILOT
    {
        type            calculated;
        value           uniform 2.17931e-06;
    }
    FUEL
    {
        type            calculated;
        value           uniform 0;
    }
    WALL
    {
        type            calculated;
        value           nonuniform List<scalar> 
50
(
2.19726e-12
4.4264e-11
1.24182e-10
2.43684e-10
4.05348e-10
6.109e-10
8.62777e-10
1.13917e-09
1.43874e-09
1.76594e-09
2.11576e-09
2.48206e-09
2.85768e-09
3.23509e-09
3.60212e-09
3.95017e-09
4.26633e-09
4.54135e-09
4.75559e-09
4.83755e-09
4.87258e-09
4.86208e-09
4.81604e-09
4.75892e-09
4.72504e-09
4.75745e-09
4.91239e-09
5.23621e-09
5.74734e-09
6.46196e-09
7.39159e-09
8.50243e-09
9.73946e-09
1.10488e-08
1.23629e-08
1.35971e-08
1.46577e-08
1.54503e-08
1.58658e-08
1.58229e-08
1.52617e-08
1.39445e-08
1.21373e-08
1.00556e-08
7.86213e-09
5.73375e-09
3.79464e-09
2.30314e-09
1.24984e-09
5.52549e-10
)
;
    }
    front
    {
        type            wedge;
    }
    back
    {
        type            wedge;
    }
}


// ************************************************************************* //
