/*--------------------------------*- C++ -*----------------------------------*\
| =========                 |                                                 |
| \\      /  F ield         | OpenFOAM: The Open Source CFD Toolbox           |
|  \\    /   O peration     | Version:  2.4.x                                 |
|   \\  /    A nd           | Web:      www.OpenFOAM.org                      |
|    \\/     M anipulation  |                                                 |
\*---------------------------------------------------------------------------*/
FoamFile
{
    version     2.0;
    format      ascii;
    class       volScalarField;
    location    "0.1";
    object      HOCN;
}
// * * * * * * * * * * * * * * * * * * * * * * * * * * * * * * * * * * * * * //

dimensions      [0 0 0 0 0 0 0];

internalField   nonuniform List<scalar> 
1250
(
1.58135e-10
5.96518e-10
1.09139e-09
1.6131e-09
2.19319e-09
2.84674e-09
3.58692e-09
4.41426e-09
5.32056e-09
6.31228e-09
7.33826e-09
8.32779e-09
9.36776e-09
1.04304e-08
1.15123e-08
1.26181e-08
1.3622e-08
1.44933e-08
1.53986e-08
1.63431e-08
1.73343e-08
1.8365e-08
1.94214e-08
2.02004e-08
2.1044e-08
2.19955e-08
2.30395e-08
2.41626e-08
2.53737e-08
2.66634e-08
2.80297e-08
2.94521e-08
3.08368e-08
3.21093e-08
3.35039e-08
3.49922e-08
3.65563e-08
3.82011e-08
3.98853e-08
4.15778e-08
4.32142e-08
4.47882e-08
4.62415e-08
4.74816e-08
4.85603e-08
4.94057e-08
4.95186e-08
4.89229e-08
4.62649e-08
3.64372e-08
1.8151e-10
6.7534e-10
1.2e-09
1.75535e-09
2.37653e-09
3.07601e-09
3.86452e-09
4.73163e-09
5.68484e-09
6.70922e-09
7.75084e-09
8.75792e-09
9.80517e-09
1.08702e-08
1.19559e-08
1.30508e-08
1.40364e-08
1.49047e-08
1.58051e-08
1.67476e-08
1.77356e-08
1.87548e-08
1.98031e-08
2.05882e-08
2.14206e-08
2.23731e-08
2.34099e-08
2.45307e-08
2.57355e-08
2.70188e-08
2.83735e-08
2.97826e-08
3.11865e-08
3.24494e-08
3.38268e-08
3.52949e-08
3.68402e-08
3.84596e-08
4.01132e-08
4.17645e-08
4.33627e-08
4.48849e-08
4.62986e-08
4.74838e-08
4.852e-08
4.93092e-08
4.93739e-08
4.87278e-08
4.59805e-08
3.61089e-08
2.53859e-10
8.98659e-10
1.50786e-09
2.16186e-09
2.89823e-09
3.71095e-09
4.60922e-09
5.58086e-09
6.61669e-09
7.69565e-09
8.76033e-09
9.78809e-09
1.08391e-08
1.19028e-08
1.29718e-08
1.40427e-08
1.49818e-08
1.58346e-08
1.67238e-08
1.76564e-08
1.86246e-08
1.96212e-08
2.06523e-08
2.14451e-08
2.22629e-08
2.3197e-08
2.42217e-08
2.53334e-08
2.65248e-08
2.7792e-08
2.91229e-08
3.05016e-08
3.19122e-08
3.31776e-08
3.45149e-08
3.59366e-08
3.74402e-08
3.90017e-08
4.0589e-08
4.2148e-08
4.36766e-08
4.50894e-08
4.64181e-08
4.7486e-08
4.8432e-08
4.90909e-08
4.89982e-08
4.82267e-08
4.52702e-08
3.5396e-08
4.69232e-10
1.44188e-09
2.26047e-09
3.14362e-09
4.11115e-09
5.12771e-09
6.18582e-09
7.27629e-09
8.37578e-09
9.48978e-09
1.05446e-08
1.15548e-08
1.2571e-08
1.3594e-08
1.46108e-08
1.56209e-08
1.64807e-08
1.7301e-08
1.81634e-08
1.90589e-08
1.99851e-08
2.09481e-08
2.19485e-08
2.27496e-08
2.35475e-08
2.44226e-08
2.54318e-08
2.65219e-08
2.76893e-08
2.89244e-08
3.02108e-08
3.15338e-08
3.2896e-08
3.41912e-08
3.54661e-08
3.68303e-08
3.82617e-08
3.97361e-08
4.12091e-08
4.26591e-08
4.40524e-08
4.53275e-08
4.65023e-08
4.74036e-08
4.81879e-08
4.86381e-08
4.8398e-08
4.74649e-08
4.42311e-08
3.4328e-08
1.3789e-09
3.19711e-09
4.44727e-09
5.74131e-09
6.9654e-09
8.12877e-09
9.20947e-09
1.03103e-08
1.13581e-08
1.23889e-08
1.33133e-08
1.42196e-08
1.5116e-08
1.60039e-08
1.69021e-08
1.78181e-08
1.85631e-08
1.93223e-08
2.01134e-08
2.09448e-08
2.18144e-08
2.27252e-08
2.36694e-08
2.44453e-08
2.52125e-08
2.60581e-08
2.69916e-08
2.80494e-08
2.91706e-08
3.03453e-08
3.15676e-08
3.28296e-08
3.41065e-08
3.53755e-08
3.659e-08
3.78686e-08
3.91971e-08
4.05411e-08
4.18781e-08
4.31829e-08
4.43953e-08
4.55047e-08
4.64798e-08
4.71772e-08
4.77563e-08
4.79587e-08
4.7465e-08
4.64195e-08
4.28287e-08
3.29627e-08
1.30948e-08
1.09045e-08
9.66062e-09
9.73438e-09
1.02419e-08
1.09492e-08
1.18251e-08
1.28353e-08
1.38887e-08
1.49607e-08
1.6019e-08
1.71594e-08
1.8364e-08
1.91435e-08
1.98645e-08
2.0598e-08
2.12002e-08
2.1848e-08
2.25457e-08
2.32902e-08
2.40649e-08
2.48707e-08
2.57079e-08
2.64533e-08
2.71821e-08
2.79929e-08
2.88673e-08
2.98218e-08
3.08776e-08
3.19869e-08
3.31183e-08
3.42651e-08
3.54252e-08
3.65865e-08
3.77324e-08
3.89066e-08
4.00929e-08
4.12994e-08
4.24618e-08
4.35779e-08
4.45945e-08
4.54934e-08
4.62444e-08
4.66866e-08
4.70426e-08
4.69506e-08
4.62384e-08
4.49908e-08
4.10859e-08
3.13655e-08
3.09888e-08
1.72705e-08
1.36273e-08
1.28612e-08
1.29709e-08
1.36012e-08
1.44439e-08
1.54084e-08
1.64553e-08
1.7515e-08
1.86079e-08
1.97551e-08
2.09367e-08
2.21527e-08
2.33155e-08
2.37995e-08
2.42588e-08
2.47686e-08
2.5329e-08
2.59353e-08
2.65647e-08
2.72433e-08
2.7972e-08
2.8663e-08
2.93375e-08
3.00872e-08
3.08982e-08
3.17642e-08
3.26979e-08
3.36917e-08
3.47056e-08
3.57322e-08
3.67592e-08
3.77757e-08
3.87469e-08
3.97488e-08
4.07997e-08
4.18308e-08
4.28237e-08
4.37423e-08
4.4541e-08
4.52008e-08
4.56779e-08
4.58673e-08
4.59658e-08
4.55911e-08
4.46359e-08
4.32302e-08
3.90773e-08
2.96235e-08
2.54139e-08
1.95662e-08
1.55519e-08
1.48988e-08
1.50524e-08
1.58235e-08
1.67899e-08
1.78319e-08
1.89184e-08
2.00451e-08
2.1186e-08
2.23441e-08
2.35183e-08
2.46923e-08
2.58718e-08
2.70768e-08
2.73984e-08
2.7753e-08
2.81674e-08
2.86297e-08
2.91369e-08
2.96835e-08
3.02684e-08
3.08705e-08
3.14941e-08
3.21636e-08
3.28883e-08
3.36548e-08
3.44545e-08
3.53099e-08
3.61842e-08
3.70555e-08
3.79245e-08
3.878e-08
3.95784e-08
4.03293e-08
4.11698e-08
4.20305e-08
4.28192e-08
4.35213e-08
4.40772e-08
4.44975e-08
4.47181e-08
4.4642e-08
4.45291e-08
4.38192e-08
4.27147e-08
4.11054e-08
3.68455e-08
2.77678e-08
1.17492e-08
1.67043e-08
1.44792e-08
1.49278e-08
1.59459e-08
1.70137e-08
1.83011e-08
1.95552e-08
2.08027e-08
2.20981e-08
2.33458e-08
2.45638e-08
2.57608e-08
2.69277e-08
2.80781e-08
2.92962e-08
3.02849e-08
3.05225e-08
3.08122e-08
3.11442e-08
3.15041e-08
3.1905e-08
3.23444e-08
3.28076e-08
3.33769e-08
3.3975e-08
3.46153e-08
3.52643e-08
3.59482e-08
3.6635e-08
3.73686e-08
3.80926e-08
3.87855e-08
3.94587e-08
4.00681e-08
4.06348e-08
4.11513e-08
4.17727e-08
4.23554e-08
4.28375e-08
4.31671e-08
4.33258e-08
4.32893e-08
4.29828e-08
4.26131e-08
4.16684e-08
4.04057e-08
3.87024e-08
3.44707e-08
2.57347e-08
2.9868e-09
7.24969e-09
1.03049e-08
1.27028e-08
1.48335e-08
1.6753e-08
1.84743e-08
2.01133e-08
2.17824e-08
2.34888e-08
2.50749e-08
2.65554e-08
2.79077e-08
2.9186e-08
3.0376e-08
3.15235e-08
3.26873e-08
3.29352e-08
3.31002e-08
3.32885e-08
3.35e-08
3.37365e-08
3.39924e-08
3.42696e-08
3.47448e-08
3.52758e-08
3.58318e-08
3.6381e-08
3.69464e-08
3.75062e-08
3.80723e-08
3.863e-08
3.91651e-08
3.96601e-08
4.01184e-08
4.04927e-08
4.08106e-08
4.10349e-08
4.136e-08
4.16325e-08
4.17504e-08
4.16842e-08
4.14108e-08
4.09312e-08
4.03521e-08
3.91996e-08
3.78936e-08
3.61035e-08
3.20597e-08
2.36536e-08
3.66414e-10
2.17588e-09
4.28423e-09
8.26163e-09
1.17861e-08
1.45378e-08
1.69496e-08
1.91236e-08
2.10622e-08
2.29529e-08
2.49131e-08
2.67391e-08
2.83839e-08
2.99192e-08
3.13284e-08
3.26274e-08
3.38534e-08
3.41467e-08
3.42664e-08
3.43891e-08
3.45215e-08
3.46658e-08
3.48213e-08
3.49894e-08
3.53624e-08
3.58449e-08
3.63144e-08
3.67826e-08
3.72494e-08
3.76957e-08
3.81303e-08
3.85571e-08
3.89195e-08
3.92582e-08
3.95268e-08
3.97425e-08
3.98756e-08
3.99504e-08
3.9884e-08
3.98804e-08
3.9798e-08
3.9544e-08
3.90773e-08
3.84418e-08
3.77012e-08
3.64004e-08
3.50829e-08
3.33142e-08
2.95587e-08
2.15096e-08
2.00589e-10
8.46405e-10
1.68799e-09
3.25863e-09
6.06644e-09
1.00357e-08
1.3449e-08
1.6078e-08
1.85365e-08
2.07796e-08
2.27402e-08
2.463e-08
2.6349e-08
2.79279e-08
2.94686e-08
3.12345e-08
3.25374e-08
3.30896e-08
3.34561e-08
3.37605e-08
3.40115e-08
3.42296e-08
3.44272e-08
3.46056e-08
3.49075e-08
3.53542e-08
3.57732e-08
3.61696e-08
3.65444e-08
3.69039e-08
3.72458e-08
3.75411e-08
3.77815e-08
3.79811e-08
3.81128e-08
3.81716e-08
3.81681e-08
3.80557e-08
3.78679e-08
3.75659e-08
3.71953e-08
3.67918e-08
3.61619e-08
3.54012e-08
3.45276e-08
3.31896e-08
3.19389e-08
3.02608e-08
2.67018e-08
1.92323e-08
1.02815e-10
4.08853e-10
7.96997e-10
1.38602e-09
2.41306e-09
4.17075e-09
6.65671e-09
9.71504e-09
1.29261e-08
1.59526e-08
1.86227e-08
2.08934e-08
2.29598e-08
2.46032e-08
2.59445e-08
2.72208e-08
2.82819e-08
2.91726e-08
2.99513e-08
3.06235e-08
3.11878e-08
3.16683e-08
3.20848e-08
3.24534e-08
3.28305e-08
3.32793e-08
3.36922e-08
3.40723e-08
3.44171e-08
3.47386e-08
3.50243e-08
3.52453e-08
3.54127e-08
3.55152e-08
3.55407e-08
3.55021e-08
3.53795e-08
3.51567e-08
3.48534e-08
3.44429e-08
3.39441e-08
3.33328e-08
3.2596e-08
3.17684e-08
3.08133e-08
2.9541e-08
2.84355e-08
2.68047e-08
2.34645e-08
1.67797e-08
5.92996e-11
2.25687e-10
4.40539e-10
7.15698e-10
1.12385e-09
1.70916e-09
2.58369e-09
3.91463e-09
5.76412e-09
7.99222e-09
1.03895e-08
1.27797e-08
1.50273e-08
1.69711e-08
1.87547e-08
2.03857e-08
2.18412e-08
2.31334e-08
2.42865e-08
2.52867e-08
2.6154e-08
2.69387e-08
2.76252e-08
2.82256e-08
2.87529e-08
2.92479e-08
2.9701e-08
3.01163e-08
3.04945e-08
3.08364e-08
3.11176e-08
3.13311e-08
3.14776e-08
3.15638e-08
3.15504e-08
3.14668e-08
3.12968e-08
3.10423e-08
3.0688e-08
3.02472e-08
2.97121e-08
2.90768e-08
2.8326e-08
2.75088e-08
2.65849e-08
2.54463e-08
2.44493e-08
2.28276e-08
1.9918e-08
1.41907e-08
3.78553e-11
1.3817e-10
2.6482e-10
4.22904e-10
6.13572e-10
8.55416e-10
1.17315e-09
1.61356e-09
2.23905e-09
3.13372e-09
4.34626e-09
5.77328e-09
7.3175e-09
8.93355e-09
1.05669e-08
1.21647e-08
1.37032e-08
1.51653e-08
1.65439e-08
1.78431e-08
1.90336e-08
2.00997e-08
2.10724e-08
2.19363e-08
2.26152e-08
2.32132e-08
2.37678e-08
2.4281e-08
2.47329e-08
2.5131e-08
2.54766e-08
2.57558e-08
2.59577e-08
2.60877e-08
2.61102e-08
2.60742e-08
2.59398e-08
2.57133e-08
2.54021e-08
2.50003e-08
2.45193e-08
2.39523e-08
2.32899e-08
2.25672e-08
2.17583e-08
2.0825e-08
1.99929e-08
1.85403e-08
1.62343e-08
1.15946e-08
2.55106e-11
8.98345e-11
1.67836e-10
2.60284e-10
3.69631e-10
4.99318e-10
6.45591e-10
8.28892e-10
1.05832e-09
1.35624e-09
1.73188e-09
2.17461e-09
2.76165e-09
3.50723e-09
4.40588e-09
5.43269e-09
6.55087e-09
7.72503e-09
8.92619e-09
1.01074e-08
1.12608e-08
1.23663e-08
1.34143e-08
1.4252e-08
1.50123e-08
1.57242e-08
1.63896e-08
1.70145e-08
1.75862e-08
1.80969e-08
1.85462e-08
1.89295e-08
1.92339e-08
1.94615e-08
1.95951e-08
1.96549e-08
1.96155e-08
1.95103e-08
1.93265e-08
1.90511e-08
1.87133e-08
1.82964e-08
1.78151e-08
1.72745e-08
1.66945e-08
1.60349e-08
1.53876e-08
1.42528e-08
1.25948e-08
9.07892e-09
1.76059e-11
6.04305e-11
1.11059e-10
1.69438e-10
2.35913e-10
3.11446e-10
3.97811e-10
4.95067e-10
6.02688e-10
7.31191e-10
8.58091e-10
9.95666e-10
1.16456e-09
1.37568e-09
1.6478e-09
1.99619e-09
2.43792e-09
2.98036e-09
3.61463e-09
4.32707e-09
5.0633e-09
5.79045e-09
6.51032e-09
7.21889e-09
7.90726e-09
8.5752e-09
9.21228e-09
9.82106e-09
1.03941e-08
1.0934e-08
1.14326e-08
1.1869e-08
1.22558e-08
1.25712e-08
1.28169e-08
1.29958e-08
1.30973e-08
1.31368e-08
1.3107e-08
1.30149e-08
1.28787e-08
1.26709e-08
1.24239e-08
1.21327e-08
1.18192e-08
1.14445e-08
1.10534e-08
1.03791e-08
9.25848e-09
6.70381e-09
1.22316e-11
4.1293e-11
7.51247e-11
1.13602e-10
1.56661e-10
2.04398e-10
2.57138e-10
3.15501e-10
3.80457e-10
4.46416e-10
4.99337e-10
5.55503e-10
6.16077e-10
6.83087e-10
7.62243e-10
8.53628e-10
9.72066e-10
1.11577e-09
1.28822e-09
1.49255e-09
1.73707e-09
2.02416e-09
2.34657e-09
2.70344e-09
3.09294e-09
3.50046e-09
3.92066e-09
4.36082e-09
4.78805e-09
5.21067e-09
5.6277e-09
6.01539e-09
6.37175e-09
6.69354e-09
6.97771e-09
7.21539e-09
7.41721e-09
7.57437e-09
7.68521e-09
7.75223e-09
7.78803e-09
7.78033e-09
7.7542e-09
7.70278e-09
7.6303e-09
7.51689e-09
7.39729e-09
7.08579e-09
6.34578e-09
4.57821e-09
8.44922e-12
2.82529e-11
5.11347e-11
7.70302e-11
1.05852e-10
1.37534e-10
1.7206e-10
2.09493e-10
2.47826e-10
2.80604e-10
3.12698e-10
3.43877e-10
3.72576e-10
3.99865e-10
4.27571e-10
4.55819e-10
4.84932e-10
5.20196e-10
5.5855e-10
5.99447e-10
6.528e-10
7.11026e-10
7.84991e-10
8.67808e-10
9.74551e-10
1.10094e-09
1.24706e-09
1.41538e-09
1.60062e-09
1.80437e-09
2.02242e-09
2.25356e-09
2.48065e-09
2.70047e-09
2.93545e-09
3.15762e-09
3.36723e-09
3.55706e-09
3.7251e-09
3.88177e-09
4.02031e-09
4.13896e-09
4.24964e-09
4.34569e-09
4.43482e-09
4.50612e-09
4.56221e-09
4.44853e-09
3.97506e-09
2.79205e-09
5.73113e-12
1.90931e-11
3.45269e-11
5.20291e-11
7.156e-11
9.30531e-11
1.16437e-10
1.3874e-10
1.6007e-10
1.80721e-10
2.0033e-10
2.1857e-10
2.352e-10
2.50013e-10
2.62848e-10
2.73338e-10
2.82192e-10
2.89622e-10
2.95312e-10
2.99233e-10
3.01093e-10
3.05006e-10
3.08608e-10
3.10879e-10
3.15626e-10
3.25473e-10
3.35578e-10
3.58654e-10
3.92081e-10
4.57886e-10
5.28463e-10
6.20642e-10
7.16935e-10
8.29638e-10
9.44169e-10
1.06994e-09
1.19325e-09
1.33702e-09
1.47588e-09
1.61443e-09
1.75619e-09
1.90326e-09
2.05125e-09
2.19627e-09
2.3376e-09
2.46803e-09
2.56538e-09
2.49922e-09
2.22432e-09
1.45043e-09
3.7502e-12
1.2527e-11
2.27472e-11
3.44505e-11
4.71779e-11
6.05672e-11
7.44648e-11
8.85375e-11
1.0243e-10
1.15794e-10
1.28302e-10
1.39637e-10
1.49523e-10
1.57713e-10
1.63982e-10
1.68257e-10
1.70653e-10
1.70669e-10
1.68113e-10
1.63324e-10
1.55829e-10
1.45378e-10
1.31789e-10
1.1493e-10
9.51729e-11
1.0049e-10
1.08034e-10
1.16257e-10
1.2569e-10
1.41758e-10
1.61837e-10
1.85565e-10
2.19282e-10
2.5693e-10
3.02346e-10
3.55863e-10
4.12758e-10
4.82137e-10
5.5566e-10
6.30492e-10
7.13675e-10
7.98627e-10
8.82249e-10
9.99202e-10
1.1192e-09
1.22046e-09
1.26394e-09
1.22885e-09
1.04738e-09
5.84112e-10
2.19928e-12
7.42402e-12
1.35537e-11
2.05521e-11
2.83124e-11
3.66703e-11
4.54187e-11
5.43194e-11
6.31185e-11
7.15508e-11
7.93604e-11
8.62988e-11
9.21161e-11
9.65869e-11
9.96397e-11
1.01111e-10
1.00695e-10
9.81839e-11
9.33508e-11
8.59529e-11
7.56878e-11
6.22395e-11
4.52757e-11
4.46426e-11
4.43073e-11
4.36205e-11
4.28523e-11
4.23176e-11
4.24286e-11
4.49229e-11
5.03811e-11
5.8318e-11
6.88901e-11
8.37383e-11
1.02807e-10
1.24913e-10
1.4992e-10
1.8023e-10
2.13993e-10
2.49593e-10
2.86606e-10
3.23496e-10
3.58244e-10
3.95162e-10
4.6596e-10
5.15724e-10
5.41431e-10
5.02789e-10
3.6966e-10
1.84675e-10
1.06231e-12
3.76868e-12
7.10576e-12
1.10358e-11
1.5475e-11
2.03051e-11
2.53876e-11
3.05662e-11
3.56697e-11
4.05198e-11
4.49321e-11
4.87291e-11
5.17947e-11
5.39575e-11
5.49916e-11
5.47253e-11
5.29783e-11
4.95476e-11
4.42083e-11
3.67121e-11
2.68074e-11
2.37053e-11
2.22989e-11
2.04707e-11
1.82655e-11
1.57805e-11
1.33251e-11
1.14469e-11
9.95814e-12
9.33592e-12
1.01444e-11
1.26303e-11
1.68194e-11
2.31939e-11
3.18809e-11
4.25171e-11
5.4925e-11
6.87653e-11
8.36081e-11
9.88923e-11
1.13974e-10
1.27337e-10
1.37599e-10
1.42618e-10
1.6838e-10
1.90935e-10
1.86317e-10
1.52798e-10
9.80801e-11
4.63619e-11
3.03763e-13
1.33279e-12
2.82765e-12
4.63739e-12
6.68917e-12
8.91136e-12
1.1241e-11
1.35943e-11
1.58936e-11
1.80358e-11
1.99019e-11
2.13751e-11
2.23343e-11
2.26597e-11
2.22235e-11
2.08761e-11
1.8446e-11
1.47598e-11
1.17895e-11
1.12472e-11
1.03967e-11
9.25973e-12
7.74277e-12
5.90227e-12
3.79547e-12
1.39185e-12
1.70623e-13
1.80365e-13
1.95313e-13
2.16572e-13
2.49886e-13
3.2194e-13
4.02248e-13
4.89424e-13
4.61384e-12
9.96126e-12
1.61615e-11
2.29388e-11
2.97119e-11
3.57141e-11
4.09157e-11
4.45217e-11
4.63625e-11
4.46565e-11
4.14063e-11
4.61476e-11
4.04473e-11
2.94071e-11
1.69659e-11
7.65053e-12
9.95272e-15
1.78264e-13
3.93862e-13
5.62944e-13
6.97569e-13
7.70209e-13
7.69904e-13
8.65173e-13
1.02535e-12
1.17242e-12
1.2954e-12
1.38244e-12
1.42187e-12
1.40557e-12
1.32934e-12
1.16749e-12
8.9455e-13
4.94254e-13
3.73095e-14
3.70197e-14
3.61515e-14
3.46874e-14
3.26835e-14
3.0335e-14
2.79398e-14
2.58973e-14
2.47666e-14
2.50506e-14
2.70036e-14
3.08848e-14
3.6922e-14
4.4956e-14
5.46401e-14
6.5617e-14
7.73789e-14
8.92257e-14
1.00328e-13
1.09783e-13
1.16544e-13
1.19663e-13
1.18476e-13
1.55267e-12
2.81068e-12
3.39525e-12
3.37996e-12
2.90597e-12
2.12527e-12
1.36931e-12
7.1906e-13
4.13895e-13
)
;

boundaryField
{
    AXIS
    {
        type            empty;
    }
    OUTLET
    {
        type            calculated;
        value           nonuniform List<scalar> 
25
(
3.64372e-08
3.61089e-08
3.5396e-08
3.4328e-08
3.29627e-08
3.13655e-08
2.96235e-08
2.77678e-08
2.57347e-08
2.36536e-08
2.15096e-08
1.92323e-08
1.67797e-08
1.41907e-08
1.15946e-08
9.07892e-09
6.70381e-09
4.57821e-09
2.79205e-09
1.45043e-09
5.84112e-10
1.84675e-10
4.63619e-11
7.65053e-12
4.13895e-13
)
;
    }
    COFLOW
    {
        type            calculated;
        value           uniform 0;
    }
    PILOT
    {
        type            calculated;
        value           uniform 1.78603e-13;
    }
    FUEL
    {
        type            calculated;
        value           uniform 0;
    }
    WALL
    {
        type            calculated;
        value           nonuniform List<scalar> 
50
(
9.95272e-15
1.78264e-13
3.93862e-13
5.62944e-13
6.97569e-13
7.70209e-13
7.69904e-13
8.65173e-13
1.02535e-12
1.17242e-12
1.2954e-12
1.38244e-12
1.42187e-12
1.40557e-12
1.32934e-12
1.16749e-12
8.9455e-13
4.94254e-13
3.73095e-14
3.70197e-14
3.61515e-14
3.46874e-14
3.26835e-14
3.0335e-14
2.79398e-14
2.58973e-14
2.47666e-14
2.50506e-14
2.70036e-14
3.08848e-14
3.6922e-14
4.4956e-14
5.46401e-14
6.5617e-14
7.73789e-14
8.92257e-14
1.00328e-13
1.09783e-13
1.16544e-13
1.19663e-13
1.18476e-13
1.55267e-12
2.81068e-12
3.39525e-12
3.37996e-12
2.90597e-12
2.12527e-12
1.36931e-12
7.1906e-13
4.13895e-13
)
;
    }
    front
    {
        type            wedge;
    }
    back
    {
        type            wedge;
    }
}


// ************************************************************************* //
