/*--------------------------------*- C++ -*----------------------------------*\
| =========                 |                                                 |
| \\      /  F ield         | OpenFOAM: The Open Source CFD Toolbox           |
|  \\    /   O peration     | Version:  2.4.x                                 |
|   \\  /    A nd           | Web:      www.OpenFOAM.org                      |
|    \\/     M anipulation  |                                                 |
\*---------------------------------------------------------------------------*/
FoamFile
{
    version     2.0;
    format      ascii;
    class       volScalarField;
    location    "0.1";
    object      k;
}
// * * * * * * * * * * * * * * * * * * * * * * * * * * * * * * * * * * * * * //

dimensions      [0 2 -2 0 0 0 0];

internalField   nonuniform List<scalar> 
1250
(
5.55693
5.94488
5.90646
5.98225
6.20637
6.53007
6.83345
7.09704
7.2181
7.28574
7.29743
7.26835
7.20763
7.08411
6.94751
6.76689
6.59925
6.41729
6.23351
6.04204
5.83803
5.63955
5.44764
5.26143
5.0842
4.90242
4.73302
4.56567
4.41023
4.25972
4.11908
3.98389
3.85952
3.74272
3.63338
3.53069
3.43198
3.33953
3.25334
3.1679
3.09131
3.01997
2.93934
2.88806
2.82445
2.74629
2.73838
2.79171
3.00485
3.73213
5.60983
5.94154
5.95957
6.11341
6.41235
6.77979
7.12194
7.35282
7.46392
7.50504
7.49809
7.45815
7.36788
7.23283
7.06941
6.8814
6.69659
6.50855
6.31095
6.10884
5.90208
5.69579
5.49767
5.31218
5.13014
4.94735
4.77288
4.60457
4.44543
4.29397
4.15052
4.01461
3.88784
3.77033
3.65912
3.55501
3.45572
3.3617
3.27482
3.18803
3.11046
3.0384
2.95685
2.90498
2.84012
2.76178
2.75291
2.80702
3.02132
3.75255
5.61209
5.92223
6.14384
6.53854
7.03714
7.47834
7.80843
7.97669
8.03923
8.02392
7.9705
7.86728
7.72311
7.54336
7.33812
7.11912
6.90808
6.6957
6.47615
6.25529
6.03438
5.81602
5.60787
5.4156
5.22794
5.03978
4.8583
4.68483
4.52072
4.36499
4.21781
4.07857
3.94838
3.82779
3.71378
3.60704
3.50524
3.40891
3.31963
3.23078
3.15132
3.07701
2.99413
2.94056
2.87342
2.79434
2.78441
2.83973
3.05791
3.79723
5.42624
6.03702
6.80574
7.70556
8.4322
8.8527
9.07992
9.09546
9.02881
8.87698
8.70233
8.49842
8.26397
8.00928
7.73935
7.46958
7.21734
6.96807
6.71662
6.46902
6.22706
5.99144
5.76897
5.56411
5.36822
5.17276
4.9819
4.80088
4.62962
4.46778
4.31514
4.17103
4.03583
3.91044
3.79243
3.68184
3.57636
3.47673
3.38394
3.29224
3.21001
3.13252
3.04784
2.99181
2.92152
2.84182
2.83096
2.88853
3.11311
3.86453
5.585
7.05758
9.1017
10.5546
11.1131
11.1585
11.0352
10.7336
10.3615
9.99695
9.65369
9.30465
8.94812
8.59131
8.23622
7.90187
7.59802
7.30226
7.01223
6.73258
6.46484
6.20801
5.96777
5.74725
5.53785
5.33425
5.13523
4.94419
4.76447
4.59499
4.43549
4.28526
4.14393
4.01254
3.88933
3.77397
3.66389
3.56017
3.4631
3.36799
3.28235
3.201
3.11429
3.05524
2.98125
2.90133
2.89018
2.95102
3.18539
3.95169
9.01637
12.9063
14.9882
14.9195
14.6063
13.9404
13.2149
12.4989
11.8181
11.2209
10.6832
10.1693
9.67404
9.20654
8.76625
8.36695
8.00801
7.66309
7.33239
7.01943
6.72456
6.44532
6.18601
5.94861
5.72474
5.51015
5.30368
5.10439
4.9149
4.7372
4.57027
4.41301
4.26498
4.12676
3.99738
3.87672
3.76152
3.65332
3.55154
3.45275
3.36331
3.27785
3.18913
3.12674
3.04895
2.9697
2.95926
3.02388
3.27387
4.05533
7.14435
14.7137
17.1207
17.0774
16.6589
15.7421
14.772
13.8323
12.9669
12.216
11.5331
10.8953
10.301
9.75499
9.24663
8.79367
8.38769
8.00095
7.63541
7.29393
6.97522
6.67616
6.39995
6.14765
5.9112
5.68576
5.47108
5.26562
5.0688
4.8828
4.70837
4.54399
4.38929
4.24448
4.1087
3.98229
3.86201
3.74935
3.64284
3.54048
3.4472
3.35787
3.26745
3.20169
3.1205
3.04332
3.03484
3.1058
3.37677
4.16871
3.15235
9.91623
14.3748
15.8916
16.0931
15.689
15.0091
14.1986
13.4004
12.6684
11.9666
11.301
10.6786
10.1039
9.5733
9.10081
8.66914
8.2588
7.87261
7.51395
7.18063
6.87006
6.58334
6.3212
6.07638
5.8429
5.62135
5.41103
5.20988
5.01824
4.83737
4.66678
4.50615
4.35571
4.21431
4.08246
3.9575
3.84091
3.73016
3.62476
3.52802
3.4355
3.34399
3.27522
3.19161
3.11832
3.11309
3.19352
3.48971
4.2848
2.21468
5.44719
9.27991
12.0143
13.4556
13.9244
13.8485
13.5098
12.9821
12.429
11.837
11.2492
10.6822
10.1495
9.65375
9.21047
8.79099
8.38223
7.99782
7.6405
7.30774
6.99752
6.71008
6.44601
6.19815
5.9611
5.73666
5.52402
5.32186
5.12831
4.94376
4.76907
4.6044
4.45006
4.3048
4.16878
4.03999
3.92043
3.80652
3.69909
3.59974
3.5052
3.41348
3.34245
3.25792
3.19077
3.18982
3.28154
3.60984
4.39353
2.01115
2.73941
4.68019
7.30775
9.43976
10.763
11.4389
11.7016
11.654
11.4611
11.1135
10.7212
10.3018
9.87692
9.47119
9.09495
8.71579
8.33599
7.97812
7.64218
7.32736
7.03185
6.75582
6.49835
6.25391
6.02025
5.79895
5.58888
5.389
5.19822
5.01468
4.83866
4.67294
4.51736
4.3707
4.23297
4.10207
3.98076
3.86523
3.75724
3.65656
3.56153
3.47075
3.39858
3.31533
3.25677
3.26059
3.36543
3.7347
4.48588
1.15418
1.5238
2.23574
3.64879
5.51022
7.17149
8.37601
9.17098
9.60444
9.78806
9.76535
9.65807
9.45392
9.20938
8.95561
8.68805
8.38954
8.08119
7.78401
7.49564
7.21695
6.95019
6.69701
6.45619
6.22488
6.00349
5.79249
5.59107
5.39897
5.21593
5.03778
4.86519
4.70264
4.54946
4.40462
4.268
4.13778
4.01677
3.90128
3.79452
3.69424
3.60062
3.51232
3.44061
3.36144
3.31389
3.32373
3.44362
3.86191
4.55831
1.03996
1.16347
1.36331
1.78978
2.67335
3.91212
5.16994
6.23477
7.0219
7.56966
7.89079
8.07112
8.12125
8.0972
8.02342
7.88839
7.71457
7.52633
7.3273
7.11848
6.90532
6.69282
6.48388
6.27848
6.07702
5.88188
5.69276
5.50991
5.33303
5.16307
4.99597
4.83313
4.67912
4.53315
4.39435
4.2626
4.13667
4.01918
3.90656
3.80332
3.70589
3.61629
3.53276
3.46397
3.39288
3.35878
3.37763
3.51449
3.98787
4.61025
1.01173
1.04948
1.09487
1.19083
1.41725
1.8652
2.60196
3.47344
4.31234
5.03863
5.60124
6.02908
6.32689
6.52381
6.64197
6.68156
6.66954
6.62822
6.54899
6.44397
6.32182
6.18893
6.04698
5.89901
5.7481
5.59692
5.44519
5.29438
5.14525
4.99875
4.85245
4.70948
4.57319
4.44229
4.31624
4.19537
4.07917
3.96988
3.86465
3.76858
3.67739
3.595
3.51958
3.45712
3.39938
3.38105
3.41627
3.56887
4.10364
4.63171
1.00052
1.00444
1.00741
1.01779
1.05491
1.14926
1.34405
1.68848
2.18757
2.75652
3.32113
3.83989
4.28142
4.64018
4.92214
5.12937
5.27518
5.37672
5.43274
5.44687
5.43621
5.40464
5.34849
5.27765
5.19516
5.10457
5.00525
4.90015
4.79117
4.67922
4.56601
4.45513
4.34667
4.24004
4.13533
4.03341
3.93435
3.84024
3.74935
3.66637
3.58749
3.51734
3.45535
3.40488
3.36711
3.36523
3.41417
3.59397
4.19718
4.6047
0.9952
0.985638
0.97431
0.962786
0.955703
0.960937
0.988465
1.05688
1.18454
1.39162
1.68816
2.04097
2.41454
2.77879
3.11627
3.41284
3.66414
3.87638
4.04578
4.1742
4.27064
4.33892
4.37827
4.39518
4.39144
4.3749
4.33963
4.29233
4.23557
4.17282
4.1068
4.03856
3.96792
3.89538
3.82138
3.74722
3.67386
3.60284
3.53421
3.47128
3.41215
3.36012
3.31839
3.2877
3.27786
3.29152
3.3623
3.57618
4.23613
4.5046
0.992649
0.977352
0.960675
0.94272
0.924612
0.908625
0.897432
0.896544
0.909489
0.943853
1.00945
1.11295
1.26637
1.4572
1.6777
1.91409
2.15122
2.38112
2.59445
2.78441
2.95016
3.09191
3.20844
3.30205
3.37185
3.42296
3.45517
3.4732
3.47667
3.47253
3.46107
3.4415
3.41628
3.38585
3.35108
3.31338
3.27422
3.23468
3.19668
3.16185
3.13065
3.10481
3.09098
3.09111
3.10696
3.14757
3.25425
3.50684
4.17384
4.2874
0.991419
0.973672
0.954849
0.934823
0.913852
0.892595
0.872006
0.853629
0.838487
0.828579
0.828224
0.836934
0.859346
0.899081
0.961885
1.04807
1.15556
1.28329
1.42688
1.57889
1.73244
1.88203
2.02199
2.14979
2.26244
2.36101
2.44414
2.51403
2.5707
2.61762
2.65522
2.6839
2.70507
2.71923
2.72776
2.73148
2.7323
2.73133
2.73085
2.73146
2.73531
2.74413
2.76437
2.79793
2.85289
2.9263
3.07778
3.36873
3.97037
3.92303
0.990858
0.972057
0.952351
0.931607
0.909845
0.88726
0.8642
0.841167
0.818702
0.797719
0.778951
0.762318
0.749159
0.740877
0.740476
0.746283
0.760822
0.787265
0.827749
0.881423
0.947204
1.02371
1.10908
1.20095
1.29523
1.38936
1.47998
1.566
1.64627
1.72112
1.78981
1.8521
1.90866
1.95988
2.00656
2.04907
2.08949
2.12757
2.16638
2.20591
2.24856
2.29612
2.35442
2.42689
2.5193
2.63544
2.82427
3.13756
3.55926
3.37534
0.990605
0.971312
0.951165
0.930048
0.907924
0.884845
0.860957
0.836499
0.811771
0.787088
0.7627
0.738951
0.716273
0.694874
0.675365
0.65799
0.64362
0.633109
0.626847
0.626815
0.630521
0.640244
0.658213
0.683881
0.717596
0.75889
0.806547
0.860187
0.918904
0.981651
1.0471
1.11381
1.18106
1.24842
1.31588
1.38305
1.45097
1.51884
1.58883
1.66048
1.73534
1.81587
1.90666
2.00956
2.13092
2.27357
2.48224
2.75408
2.95932
2.64352
0.990462
0.970803
0.950209
0.928581
0.905884
0.882154
0.857502
0.832093
0.806112
0.779757
0.753247
0.726799
0.700603
0.674857
0.649945
0.626169
0.603585
0.582157
0.562099
0.544045
0.527849
0.513807
0.502617
0.495084
0.493413
0.495532
0.502379
0.51724
0.539426
0.569511
0.607808
0.653384
0.705131
0.762643
0.825327
0.892272
0.963434
1.03807
1.11669
1.19887
1.2854
1.37918
1.48094
1.59388
1.71853
1.86423
2.03899
2.20068
2.21911
1.79105
0.99031
0.970088
0.948648
0.925924
0.901943
0.876814
0.850699
0.823798
0.796325
0.768495
0.740509
0.712542
0.684761
0.657339
0.630471
0.604289
0.578802
0.554005
0.53018
0.50736
0.485412
0.46457
0.445236
0.428115
0.414089
0.403486
0.397555
0.397191
0.400116
0.409433
0.429135
0.456107
0.489454
0.528775
0.573755
0.623953
0.679222
0.73898
0.80365
0.872671
0.946618
1.02687
1.11174
1.20349
1.2996
1.4039
1.48641
1.50609
1.41175
0.953521
0.990044
0.968619
0.945262
0.920041
0.893211
0.865097
0.836057
0.806428
0.776524
0.746623
0.716907
0.687541
0.658665
0.630386
0.602765
0.575817
0.549534
0.52393
0.499034
0.474854
0.451459
0.429068
0.408116
0.389008
0.372159
0.358474
0.348953
0.344266
0.343885
0.34671
0.356718
0.3748
0.397114
0.423345
0.45327
0.486575
0.523004
0.562226
0.604322
0.648825
0.695591
0.74456
0.793598
0.841743
0.883007
0.906918
0.898975
0.841762
0.679327
0.451309
0.989584
0.965076
0.936634
0.905159
0.871834
0.837447
0.802703
0.768212
0.734442
0.701632
0.669882
0.639246
0.609703
0.581199
0.553677
0.527093
0.50138
0.476451
0.452224
0.428657
0.405844
0.383962
0.363285
0.344258
0.327528
0.313996
0.304524
0.299575
0.298573
0.300095
0.30663
0.319385
0.334556
0.35164
0.370282
0.390043
0.410473
0.431118
0.451634
0.471369
0.489761
0.505721
0.516546
0.52143
0.518232
0.500588
0.456628
0.398273
0.325912
0.269343
0.988755
0.952981
0.905397
0.854281
0.806561
0.759227
0.714111
0.672446
0.634422
0.5995
0.567227
0.537226
0.509157
0.482761
0.457841
0.434172
0.411467
0.389526
0.368123
0.347235
0.327102
0.307902
0.289872
0.273449
0.259258
0.247999
0.240321
0.236462
0.235746
0.236864
0.241674
0.250201
0.259528
0.269273
0.279009
0.288263
0.296518
0.303438
0.308576
0.311306
0.311608
0.309132
0.30135
0.290151
0.275089
0.257438
0.235945
0.216823
0.198584
0.187575
0.975758
0.843445
0.699433
0.593824
0.514138
0.454874
0.398004
0.356581
0.328748
0.304716
0.283743
0.265217
0.248655
0.233712
0.220072
0.207389
0.195346
0.183767
0.172552
0.161831
0.151771
0.142438
0.133995
0.126657
0.120642
0.116102
0.1131
0.111561
0.11128
0.112072
0.1138
0.116113
0.118621
0.121056
0.123194
0.124848
0.125873
0.12621
0.125776
0.124597
0.122716
0.120236
0.117199
0.114032
0.110852
0.107907
0.104864
0.102705
0.100502
0.0997279
)
;

boundaryField
{
    AXIS
    {
        type            empty;
    }
    OUTLET
    {
        type            zeroGradient;
    }
    COFLOW
    {
        type            fixedValue;
        value           uniform 1;
    }
    PILOT
    {
        type            fixedValue;
        value           uniform 1;
    }
    FUEL
    {
        type            fixedValue;
        value           uniform 5;
    }
    WALL
    {
        type            compressible::kqRWallFunction;
        value           nonuniform List<scalar> 
50
(
0.975758
0.843445
0.699433
0.593824
0.514138
0.454874
0.398004
0.356581
0.328748
0.304716
0.283743
0.265217
0.248655
0.233712
0.220072
0.207389
0.195346
0.183767
0.172552
0.161831
0.151771
0.142438
0.133995
0.126657
0.120642
0.116102
0.1131
0.111561
0.11128
0.112072
0.1138
0.116113
0.118621
0.121056
0.123194
0.124848
0.125873
0.12621
0.125776
0.124597
0.122716
0.120236
0.117199
0.114032
0.110852
0.107907
0.104864
0.102705
0.100502
0.0997279
)
;
    }
    front
    {
        type            wedge;
    }
    back
    {
        type            wedge;
    }
}


// ************************************************************************* //
