/*--------------------------------*- C++ -*----------------------------------*\
| =========                 |                                                 |
| \\      /  F ield         | OpenFOAM: The Open Source CFD Toolbox           |
|  \\    /   O peration     | Version:  2.4.x                                 |
|   \\  /    A nd           | Web:      www.OpenFOAM.org                      |
|    \\/     M anipulation  |                                                 |
\*---------------------------------------------------------------------------*/
FoamFile
{
    version     2.0;
    format      ascii;
    class       volScalarField;
    location    "0.1";
    object      N;
}
// * * * * * * * * * * * * * * * * * * * * * * * * * * * * * * * * * * * * * //

dimensions      [0 0 0 0 0 0 0];

internalField   nonuniform List<scalar> 
1250
(
1.87168e-11
7.5531e-11
1.58013e-10
2.79109e-10
4.66203e-10
7.38726e-10
1.10485e-09
1.55995e-09
2.07528e-09
2.60902e-09
3.14947e-09
3.61161e-09
4.07233e-09
4.51112e-09
4.94857e-09
5.36569e-09
5.65637e-09
5.78933e-09
5.92582e-09
6.08287e-09
6.28332e-09
6.35552e-09
6.2468e-09
6.25278e-09
6.43267e-09
6.56915e-09
6.61242e-09
6.51004e-09
6.53457e-09
6.68641e-09
6.89517e-09
7.10401e-09
7.23937e-09
7.27755e-09
7.38031e-09
7.56786e-09
7.7968e-09
8.07625e-09
8.41506e-09
8.79985e-09
9.25902e-09
9.74575e-09
1.02787e-08
1.08398e-08
1.1408e-08
1.20638e-08
1.25667e-08
1.30446e-08
1.38035e-08
1.35374e-08
2.11138e-11
8.60946e-11
1.79874e-10
3.24277e-10
5.51377e-10
8.76775e-10
1.30359e-09
1.81154e-09
2.34611e-09
2.91216e-09
3.4666e-09
3.94158e-09
4.39999e-09
4.8447e-09
5.28096e-09
5.68333e-09
5.95295e-09
6.07755e-09
6.20338e-09
6.37037e-09
6.5293e-09
6.48854e-09
6.46551e-09
6.57255e-09
6.76232e-09
6.87598e-09
6.81387e-09
6.7256e-09
6.77216e-09
6.93229e-09
7.13196e-09
7.32565e-09
7.48746e-09
7.52235e-09
7.62669e-09
7.80682e-09
8.02937e-09
8.30332e-09
8.63539e-09
9.01566e-09
9.46843e-09
9.9448e-09
1.04677e-08
1.10184e-08
1.15753e-08
1.22172e-08
1.26938e-08
1.31506e-08
1.38648e-08
1.3487e-08
2.83158e-11
1.17704e-10
2.52805e-10
4.83115e-10
8.43232e-10
1.32313e-09
1.8836e-09
2.46793e-09
3.08234e-09
3.71141e-09
4.28058e-09
4.75959e-09
5.21705e-09
5.65675e-09
6.05959e-09
6.43642e-09
6.65152e-09
6.74597e-09
6.86313e-09
6.98722e-09
6.98013e-09
6.92283e-09
7.0994e-09
7.31565e-09
7.49335e-09
7.46978e-09
7.27152e-09
7.21739e-09
7.30738e-09
7.47984e-09
7.65906e-09
7.81388e-09
8.01071e-09
8.05969e-09
8.17028e-09
8.33106e-09
8.53752e-09
8.79917e-09
9.11286e-09
9.48531e-09
9.9219e-09
1.03741e-08
1.0875e-08
1.14018e-08
1.19353e-08
1.25443e-08
1.29495e-08
1.33512e-08
1.39614e-08
1.33752e-08
4.88326e-11
2.12804e-10
5.21254e-10
1.05956e-09
1.74897e-09
2.47002e-09
3.20691e-09
3.94201e-09
4.63301e-09
5.30291e-09
5.83693e-09
6.27906e-09
6.68155e-09
7.05415e-09
7.396e-09
7.71103e-09
7.82132e-09
7.87078e-09
7.89942e-09
7.7979e-09
7.77375e-09
7.96172e-09
8.3416e-09
8.52928e-09
8.39845e-09
8.17679e-09
8.04324e-09
8.07055e-09
8.1995e-09
8.33542e-09
8.43486e-09
8.57582e-09
8.76366e-09
8.91223e-09
8.99344e-09
9.12242e-09
9.30195e-09
9.53486e-09
9.82866e-09
1.01825e-08
1.05854e-08
1.10002e-08
1.14719e-08
1.19558e-08
1.24478e-08
1.29905e-08
1.33039e-08
1.36291e-08
1.40894e-08
1.31862e-08
1.44796e-10
7.94147e-10
1.987e-09
3.27137e-09
4.43052e-09
5.44078e-09
6.24628e-09
6.99847e-09
7.61942e-09
8.18304e-09
8.5095e-09
8.78367e-09
9.0286e-09
9.25241e-09
9.4514e-09
9.63352e-09
9.5541e-09
9.39142e-09
9.2695e-09
9.28427e-09
9.47516e-09
9.76343e-09
9.95146e-09
9.63658e-09
9.33706e-09
9.22245e-09
9.3125e-09
9.37708e-09
9.40164e-09
9.42558e-09
9.49647e-09
9.62411e-09
9.82605e-09
1.00356e-08
1.00774e-08
1.01581e-08
1.02898e-08
1.04917e-08
1.07596e-08
1.10731e-08
1.14215e-08
1.17908e-08
1.22237e-08
1.26434e-08
1.30724e-08
1.35136e-08
1.36967e-08
1.39388e-08
1.41854e-08
1.29144e-08
5.13372e-09
7.47128e-09
7.55059e-09
7.92939e-09
8.38958e-09
8.87638e-09
9.36677e-09
9.91412e-09
1.04926e-08
1.10678e-08
1.14727e-08
1.19224e-08
1.24142e-08
1.24147e-08
1.23509e-08
1.22934e-08
1.19464e-08
1.17593e-08
1.17042e-08
1.17087e-08
1.1559e-08
1.13902e-08
1.12385e-08
1.10482e-08
1.09921e-08
1.10106e-08
1.09644e-08
1.0905e-08
1.08258e-08
1.0809e-08
1.09064e-08
1.10085e-08
1.11292e-08
1.12687e-08
1.1367e-08
1.13747e-08
1.14715e-08
1.1638e-08
1.18479e-08
1.20956e-08
1.23841e-08
1.27045e-08
1.3076e-08
1.34004e-08
1.37335e-08
1.40432e-08
1.40957e-08
1.42211e-08
1.4203e-08
1.25474e-08
2.36149e-08
1.67214e-08
1.41844e-08
1.33322e-08
1.30736e-08
1.32352e-08
1.34105e-08
1.36894e-08
1.40475e-08
1.43483e-08
1.45933e-08
1.49131e-08
1.52913e-08
1.57269e-08
1.61159e-08
1.57009e-08
1.5196e-08
1.47337e-08
1.4308e-08
1.39184e-08
1.37191e-08
1.36188e-08
1.36202e-08
1.34255e-08
1.31156e-08
1.28736e-08
1.27101e-08
1.2667e-08
1.26616e-08
1.26009e-08
1.25715e-08
1.25786e-08
1.26063e-08
1.26409e-08
1.27055e-08
1.27421e-08
1.27828e-08
1.28744e-08
1.30068e-08
1.31931e-08
1.3421e-08
1.36726e-08
1.39424e-08
1.41279e-08
1.43476e-08
1.45257e-08
1.44242e-08
1.44223e-08
1.41102e-08
1.21066e-08
1.69204e-08
2.01716e-08
1.83823e-08
1.77816e-08
1.74145e-08
1.75196e-08
1.75978e-08
1.77176e-08
1.78931e-08
1.80461e-08
1.82058e-08
1.842e-08
1.86992e-08
1.90327e-08
1.94306e-08
1.98312e-08
1.90549e-08
1.83274e-08
1.77074e-08
1.71771e-08
1.67212e-08
1.63369e-08
1.60148e-08
1.57222e-08
1.53849e-08
1.5085e-08
1.48613e-08
1.47e-08
1.46134e-08
1.45032e-08
1.43688e-08
1.42603e-08
1.41833e-08
1.41396e-08
1.41185e-08
1.41071e-08
1.40797e-08
1.40946e-08
1.41684e-08
1.42931e-08
1.44297e-08
1.45647e-08
1.46907e-08
1.47498e-08
1.48722e-08
1.48742e-08
1.46294e-08
1.4472e-08
1.38665e-08
1.16307e-08
6.58847e-09
1.61575e-08
1.64017e-08
1.81204e-08
1.93246e-08
2.005e-08
2.06205e-08
2.09449e-08
2.12153e-08
2.14693e-08
2.16754e-08
2.18893e-08
2.21268e-08
2.23877e-08
2.26885e-08
2.29995e-08
2.29792e-08
2.20059e-08
2.11505e-08
2.03922e-08
1.97269e-08
1.91482e-08
1.86411e-08
1.81966e-08
1.77343e-08
1.73598e-08
1.70592e-08
1.68041e-08
1.66067e-08
1.64468e-08
1.62002e-08
1.59821e-08
1.57983e-08
1.56397e-08
1.54862e-08
1.53649e-08
1.52723e-08
1.52364e-08
1.52293e-08
1.52394e-08
1.52371e-08
1.52542e-08
1.52657e-08
1.51926e-08
1.51842e-08
1.50145e-08
1.46314e-08
1.43401e-08
1.34647e-08
1.10946e-08
1.55199e-09
4.79372e-09
1.00182e-08
1.39085e-08
1.71429e-08
1.95073e-08
2.11357e-08
2.2232e-08
2.32019e-08
2.39906e-08
2.45827e-08
2.50172e-08
2.51108e-08
2.50744e-08
2.51045e-08
2.53991e-08
2.57585e-08
2.49899e-08
2.41213e-08
2.32927e-08
2.25096e-08
2.17846e-08
2.11125e-08
2.0501e-08
1.99602e-08
1.94813e-08
1.90679e-08
1.87305e-08
1.84449e-08
1.81849e-08
1.78977e-08
1.75603e-08
1.7262e-08
1.69994e-08
1.6772e-08
1.65421e-08
1.63247e-08
1.609e-08
1.59615e-08
1.5885e-08
1.57985e-08
1.56989e-08
1.55767e-08
1.53888e-08
1.52607e-08
1.49224e-08
1.44446e-08
1.40111e-08
1.29257e-08
1.04586e-08
1.27518e-10
7.32394e-10
2.60496e-09
7.46274e-09
1.20338e-08
1.57188e-08
1.86272e-08
2.08462e-08
2.26237e-08
2.39833e-08
2.52785e-08
2.6219e-08
2.6982e-08
2.76269e-08
2.81388e-08
2.86485e-08
2.90553e-08
2.81156e-08
2.69982e-08
2.59407e-08
2.49487e-08
2.40311e-08
2.31782e-08
2.23953e-08
2.1783e-08
2.12737e-08
2.08099e-08
2.0395e-08
2.00265e-08
1.9685e-08
1.93693e-08
1.89352e-08
1.84936e-08
1.80874e-08
1.77158e-08
1.7377e-08
1.70479e-08
1.67439e-08
1.64188e-08
1.6204e-08
1.60187e-08
1.5821e-08
1.55832e-08
1.52933e-08
1.50496e-08
1.45518e-08
1.39974e-08
1.34692e-08
1.23813e-08
9.76203e-09
5.37505e-11
2.10351e-10
5.36754e-10
1.66749e-09
4.4993e-09
9.30915e-09
1.34069e-08
1.66444e-08
1.9357e-08
2.15634e-08
2.32872e-08
2.46991e-08
2.58521e-08
2.67674e-08
2.76549e-08
2.87731e-08
2.91299e-08
2.84586e-08
2.76496e-08
2.68044e-08
2.59414e-08
2.5091e-08
2.42707e-08
2.34847e-08
2.28493e-08
2.23593e-08
2.18831e-08
2.14253e-08
2.09895e-08
2.05769e-08
2.01893e-08
1.96875e-08
1.91856e-08
1.87108e-08
1.82566e-08
1.78192e-08
1.74057e-08
1.69924e-08
1.65962e-08
1.62034e-08
1.58389e-08
1.55584e-08
1.52091e-08
1.48244e-08
1.44722e-08
1.38646e-08
1.328e-08
1.26955e-08
1.16531e-08
8.92061e-09
2.45415e-11
9.37489e-11
1.9059e-10
3.97999e-10
9.51118e-10
2.33253e-09
4.82544e-09
8.29419e-09
1.21106e-08
1.5713e-08
1.86654e-08
2.08263e-08
2.26485e-08
2.38843e-08
2.4698e-08
2.53103e-08
2.55635e-08
2.55712e-08
2.5407e-08
2.50635e-08
2.4628e-08
2.41158e-08
2.35664e-08
2.2997e-08
2.24907e-08
2.21126e-08
2.17173e-08
2.13139e-08
2.09087e-08
2.05079e-08
2.01063e-08
1.95859e-08
1.90803e-08
1.85765e-08
1.80835e-08
1.76063e-08
1.7138e-08
1.66724e-08
1.62166e-08
1.57562e-08
1.52978e-08
1.48344e-08
1.43669e-08
1.39157e-08
1.34684e-08
1.28252e-08
1.23003e-08
1.17359e-08
1.05593e-08
7.92657e-09
1.33803e-11
5.02164e-11
9.86133e-11
1.67896e-10
2.91735e-10
5.3189e-10
1.03298e-09
2.02888e-09
3.69399e-09
5.85258e-09
8.28785e-09
1.07179e-08
1.29351e-08
1.48504e-08
1.64599e-08
1.77956e-08
1.88267e-08
1.96084e-08
2.01323e-08
2.0451e-08
2.0631e-08
2.06287e-08
2.05211e-08
2.0322e-08
2.01015e-08
1.99244e-08
1.97177e-08
1.94812e-08
1.92195e-08
1.89386e-08
1.85597e-08
1.81451e-08
1.77191e-08
1.72873e-08
1.68403e-08
1.63911e-08
1.59373e-08
1.54836e-08
1.50175e-08
1.45537e-08
1.40863e-08
1.36304e-08
1.31384e-08
1.26283e-08
1.21037e-08
1.14587e-08
1.09699e-08
1.03615e-08
9.23945e-09
6.73245e-09
8.38565e-12
3.0501e-11
5.85243e-11
9.5132e-11
1.43133e-10
2.12103e-10
3.19254e-10
5.0155e-10
8.23205e-10
1.37906e-09
2.2518e-09
3.41759e-09
4.78725e-09
6.22975e-09
7.69035e-09
9.09405e-09
1.0397e-08
1.15612e-08
1.2578e-08
1.34665e-08
1.4199e-08
1.47061e-08
1.51397e-08
1.54093e-08
1.5606e-08
1.57327e-08
1.58063e-08
1.58311e-08
1.57387e-08
1.55878e-08
1.54079e-08
1.52057e-08
1.49677e-08
1.46978e-08
1.43833e-08
1.40529e-08
1.36931e-08
1.33106e-08
1.29112e-08
1.24961e-08
1.20672e-08
1.16296e-08
1.11693e-08
1.07163e-08
1.02502e-08
9.73031e-09
9.32259e-09
8.67404e-09
7.67488e-09
5.51574e-09
5.66332e-12
1.99697e-11
3.74635e-11
5.87632e-11
8.51567e-11
1.18491e-10
1.59107e-10
2.14965e-10
2.92945e-10
4.07908e-10
5.76251e-10
8.1239e-10
1.15975e-09
1.64341e-09
2.26719e-09
3.01446e-09
3.85218e-09
4.74307e-09
5.64535e-09
6.51657e-09
7.33363e-09
8.07496e-09
8.73476e-09
9.24419e-09
9.66968e-09
1.00219e-08
1.03281e-08
1.06076e-08
1.08136e-08
1.09534e-08
1.10215e-08
1.10467e-08
1.1024e-08
1.09574e-08
1.08403e-08
1.06878e-08
1.04907e-08
1.0268e-08
1.00163e-08
9.73312e-09
9.43297e-09
9.11114e-09
8.76966e-09
8.41939e-09
8.06627e-09
7.67549e-09
7.32305e-09
6.73424e-09
5.97573e-09
4.25707e-09
3.96774e-12
1.36586e-11
2.52388e-11
3.88772e-11
5.49229e-11
7.3949e-11
9.68247e-11
1.24034e-10
1.55955e-10
1.96587e-10
2.41136e-10
2.94727e-10
3.6681e-10
4.64999e-10
6.00192e-10
7.83923e-10
1.02807e-09
1.34096e-09
1.72034e-09
2.15687e-09
2.61995e-09
3.081e-09
3.5462e-09
4.00204e-09
4.43318e-09
4.84155e-09
5.22224e-09
5.56955e-09
5.88167e-09
6.15858e-09
6.40177e-09
6.60107e-09
6.75397e-09
6.86122e-09
6.91778e-09
6.93252e-09
6.90534e-09
6.84622e-09
6.75375e-09
6.63276e-09
6.49473e-09
6.32676e-09
6.14462e-09
5.94696e-09
5.74833e-09
5.52344e-09
5.28523e-09
4.89777e-09
4.33369e-09
3.05963e-09
2.82001e-12
9.54987e-12
1.74706e-11
2.66455e-11
3.71852e-11
4.92662e-11
6.31449e-11
7.91777e-11
9.78476e-11
1.17875e-10
1.3547e-10
1.55598e-10
1.79035e-10
2.06838e-10
2.41158e-10
2.83423e-10
3.39023e-10
4.09393e-10
4.91726e-10
5.91147e-10
7.14122e-10
8.63126e-10
1.03652e-09
1.23321e-09
1.45011e-09
1.68138e-09
1.92162e-09
2.17022e-09
2.41805e-09
2.66853e-09
2.89918e-09
3.10533e-09
3.28658e-09
3.44625e-09
3.58289e-09
3.69132e-09
3.77515e-09
3.83437e-09
3.86718e-09
3.87602e-09
3.86767e-09
3.83575e-09
3.79422e-09
3.73684e-09
3.6682e-09
3.57808e-09
3.47495e-09
3.27222e-09
2.89886e-09
1.99116e-09
2.00217e-12
6.71401e-12
1.22135e-11
1.85381e-11
2.57348e-11
3.38683e-11
4.30266e-11
5.33239e-11
6.43291e-11
7.442e-11
8.50054e-11
9.61451e-11
1.07392e-10
1.19159e-10
1.32211e-10
1.46772e-10
1.63162e-10
1.7984e-10
1.97031e-10
2.16591e-10
2.41994e-10
2.71472e-10
3.09084e-10
3.53181e-10
4.09446e-10
4.76883e-10
5.5577e-10
6.46978e-10
7.48411e-10
8.58736e-10
9.75023e-10
1.09625e-09
1.21534e-09
1.33027e-09
1.44713e-09
1.55603e-09
1.65948e-09
1.75273e-09
1.83388e-09
1.90904e-09
1.9725e-09
2.02204e-09
2.06277e-09
2.08883e-09
2.10546e-09
2.10476e-09
2.08381e-09
1.98179e-09
1.72697e-09
1.14287e-09
1.40007e-12
4.67581e-12
8.49353e-12
1.28842e-11
1.78781e-11
2.35062e-11
2.9804e-11
3.60402e-11
4.23021e-11
4.87273e-11
5.5279e-11
6.19308e-11
6.86805e-11
7.55367e-11
8.25247e-11
8.94801e-11
9.54856e-11
9.95642e-11
1.03502e-10
1.07341e-10
1.11044e-10
1.16117e-10
1.22012e-10
1.28497e-10
1.37045e-10
1.48991e-10
1.6243e-10
1.82389e-10
2.06385e-10
2.39957e-10
2.76435e-10
3.2251e-10
3.71162e-10
4.27179e-10
4.84614e-10
5.47084e-10
6.08893e-10
6.78056e-10
7.45305e-10
8.11916e-10
8.79419e-10
9.38857e-10
9.93959e-10
1.04231e-09
1.08328e-09
1.11556e-09
1.12568e-09
1.06291e-09
9.07554e-10
5.53477e-10
9.46507e-13
3.16849e-12
5.77665e-12
8.80088e-12
1.21446e-11
1.57416e-11
1.95849e-11
2.36225e-11
2.7798e-11
3.20574e-11
3.63522e-11
4.06358e-11
4.48727e-11
4.90345e-11
5.31003e-11
5.65877e-11
5.8342e-11
5.95089e-11
6.00463e-11
6.0035e-11
5.94791e-11
5.83475e-11
5.66339e-11
5.4351e-11
5.16441e-11
5.44437e-11
5.83693e-11
6.27738e-11
6.79347e-11
7.63999e-11
8.70105e-11
9.95834e-11
1.17015e-10
1.36528e-10
1.5981e-10
1.8697e-10
2.15888e-10
2.50324e-10
2.86738e-10
3.23856e-10
3.64581e-10
4.06209e-10
4.47436e-10
4.84736e-10
5.1727e-10
5.39311e-10
5.33643e-10
4.9246e-10
3.98229e-10
2.10814e-10
5.74297e-13
1.94267e-12
3.56082e-12
5.43183e-12
7.54355e-12
9.87167e-12
1.23828e-11
1.50375e-11
1.77929e-11
2.06036e-11
2.34278e-11
2.62247e-11
2.8953e-11
3.15785e-11
3.35122e-11
3.45677e-11
3.51285e-11
3.51404e-11
3.45458e-11
3.32852e-11
3.12833e-11
2.84661e-11
2.47614e-11
2.46161e-11
2.44371e-11
2.41169e-11
2.38004e-11
2.36536e-11
2.38899e-11
2.54133e-11
2.8535e-11
3.29683e-11
3.87685e-11
4.67583e-11
5.68619e-11
6.84522e-11
8.14591e-11
9.70015e-11
1.14166e-10
1.32186e-10
1.50886e-10
1.6954e-10
1.87159e-10
2.03126e-10
2.19051e-10
2.24708e-10
2.18371e-10
1.90744e-10
1.34456e-10
6.59475e-11
2.88976e-13
1.02813e-12
1.94921e-12
3.05146e-12
4.32371e-12
5.74694e-12
7.29832e-12
8.95103e-12
1.06749e-11
1.24387e-11
1.42102e-11
1.59597e-11
1.73795e-11
1.83708e-11
1.90637e-11
1.94101e-11
1.93603e-11
1.88594e-11
1.78475e-11
1.62596e-11
1.40312e-11
1.30985e-11
1.23817e-11
1.14437e-11
1.03101e-11
9.03457e-12
7.78413e-12
6.87835e-12
6.22082e-12
6.05405e-12
6.66113e-12
8.15543e-12
1.05386e-11
1.41019e-11
1.88624e-11
2.45734e-11
3.11393e-11
3.83874e-11
4.61034e-11
5.40039e-11
6.17694e-11
6.86469e-11
7.39168e-11
7.64885e-11
8.07367e-11
8.13496e-11
7.37041e-11
5.76264e-11
3.601e-11
1.68884e-11
8.77567e-14
3.87188e-13
8.32098e-13
1.38711e-12
2.03985e-12
2.77896e-12
3.59616e-12
4.47714e-12
5.32395e-12
6.11115e-12
6.83707e-12
7.46818e-12
7.96969e-12
8.30672e-12
8.44161e-12
8.33108e-12
7.927e-12
7.18142e-12
6.4968e-12
6.22389e-12
5.7869e-12
5.1982e-12
4.40832e-12
3.44856e-12
2.3507e-12
1.09951e-12
4.7144e-13
4.98336e-13
5.39606e-13
5.98293e-13
6.87406e-13
8.63618e-13
1.0609e-12
1.27568e-12
3.55638e-12
6.45022e-12
9.76424e-12
1.33542e-11
1.69205e-11
2.0068e-11
2.27721e-11
2.46278e-11
2.55664e-11
2.46592e-11
2.24509e-11
2.13075e-11
1.71536e-11
1.1871e-11
6.69989e-12
2.98757e-12
3.16466e-15
5.94677e-14
1.37015e-13
2.09934e-13
2.82149e-13
3.46283e-13
3.99759e-13
4.76386e-13
5.66189e-13
6.49578e-13
7.20664e-13
7.73082e-13
8.00542e-13
7.98619e-13
7.64875e-13
6.85602e-13
5.47136e-13
3.40732e-13
1.03108e-13
1.02308e-13
9.99092e-14
9.58638e-14
9.03263e-14
8.38357e-14
7.72158e-14
7.15698e-14
6.84435e-14
6.92263e-14
7.46212e-14
8.53437e-14
1.02022e-13
1.24217e-13
1.50967e-13
1.81286e-13
2.13768e-13
2.46482e-13
2.77137e-13
3.03242e-13
3.21908e-13
3.30523e-13
3.27251e-13
1.06399e-12
1.69738e-12
1.96961e-12
1.92266e-12
1.63457e-12
1.18808e-12
7.62804e-13
4.01211e-13
2.27964e-13
)
;

boundaryField
{
    AXIS
    {
        type            empty;
    }
    OUTLET
    {
        type            calculated;
        value           nonuniform List<scalar> 
25
(
1.35374e-08
1.3487e-08
1.33752e-08
1.31862e-08
1.29144e-08
1.25474e-08
1.21066e-08
1.16307e-08
1.10946e-08
1.04586e-08
9.76203e-09
8.92061e-09
7.92657e-09
6.73245e-09
5.51574e-09
4.25707e-09
3.05963e-09
1.99116e-09
1.14287e-09
5.53477e-10
2.10814e-10
6.59475e-11
1.68884e-11
2.98757e-12
2.27964e-13
)
;
    }
    COFLOW
    {
        type            calculated;
        value           uniform 0;
    }
    PILOT
    {
        type            calculated;
        value           uniform 1.95161e-09;
    }
    FUEL
    {
        type            calculated;
        value           uniform 0;
    }
    WALL
    {
        type            calculated;
        value           nonuniform List<scalar> 
50
(
3.16466e-15
5.94677e-14
1.37015e-13
2.09934e-13
2.82149e-13
3.46283e-13
3.99759e-13
4.76386e-13
5.66189e-13
6.49578e-13
7.20664e-13
7.73082e-13
8.00542e-13
7.98619e-13
7.64875e-13
6.85602e-13
5.47136e-13
3.40732e-13
1.03108e-13
1.02308e-13
9.99092e-14
9.58638e-14
9.03263e-14
8.38357e-14
7.72158e-14
7.15698e-14
6.84435e-14
6.92263e-14
7.46212e-14
8.53437e-14
1.02022e-13
1.24217e-13
1.50967e-13
1.81286e-13
2.13768e-13
2.46482e-13
2.77137e-13
3.03242e-13
3.21908e-13
3.30523e-13
3.27251e-13
1.06399e-12
1.69738e-12
1.96961e-12
1.92266e-12
1.63457e-12
1.18808e-12
7.62804e-13
4.01211e-13
2.27964e-13
)
;
    }
    front
    {
        type            wedge;
    }
    back
    {
        type            wedge;
    }
}


// ************************************************************************* //
