/*--------------------------------*- C++ -*----------------------------------*\
| =========                 |                                                 |
| \\      /  F ield         | OpenFOAM: The Open Source CFD Toolbox           |
|  \\    /   O peration     | Version:  2.4.x                                 |
|   \\  /    A nd           | Web:      www.OpenFOAM.org                      |
|    \\/     M anipulation  |                                                 |
\*---------------------------------------------------------------------------*/
FoamFile
{
    version     2.0;
    format      ascii;
    class       volScalarField;
    location    "0.1";
    object      N2;
}
// * * * * * * * * * * * * * * * * * * * * * * * * * * * * * * * * * * * * * //

dimensions      [0 0 0 0 0 0 0];

internalField   nonuniform List<scalar> 
1250
(
0.647413
0.648573
0.650045
0.651633
0.653304
0.654997
0.656673
0.658289
0.659828
0.661292
0.662742
0.664265
0.665774
0.667267
0.668736
0.670187
0.671597
0.672942
0.674266
0.675572
0.676873
0.678172
0.679471
0.680726
0.681957
0.683173
0.684383
0.685587
0.68679
0.687994
0.689205
0.690421
0.691643
0.692869
0.694096
0.69533
0.696567
0.697811
0.699064
0.700313
0.701598
0.702864
0.704157
0.705526
0.706787
0.708244
0.709726
0.710964
0.71339
0.720624
0.647474
0.648767
0.650356
0.652053
0.653817
0.655573
0.657287
0.658913
0.660444
0.661901
0.663352
0.664867
0.666365
0.667843
0.669299
0.670736
0.672127
0.673456
0.674764
0.676058
0.677348
0.678637
0.679923
0.681164
0.682378
0.683581
0.684778
0.685972
0.687164
0.688359
0.68956
0.690766
0.691977
0.693193
0.694411
0.695636
0.696864
0.698098
0.699342
0.700582
0.701858
0.703116
0.704402
0.705762
0.707015
0.708466
0.709937
0.711173
0.713595
0.720817
0.647664
0.649327
0.651235
0.653218
0.655197
0.657065
0.658821
0.660429
0.661936
0.663356
0.664787
0.666269
0.667729
0.669165
0.670583
0.67198
0.673323
0.67461
0.675882
0.677147
0.678409
0.67967
0.680925
0.68213
0.683308
0.684481
0.685651
0.686819
0.687987
0.689161
0.690341
0.691525
0.692712
0.693905
0.695102
0.696306
0.697513
0.698726
0.699948
0.70117
0.702427
0.703665
0.704937
0.706278
0.707514
0.708951
0.710399
0.711629
0.714046
0.721244
0.648224
0.650693
0.653316
0.655783
0.658004
0.659902
0.661607
0.663122
0.664511
0.665808
0.667165
0.668557
0.669927
0.67128
0.672616
0.673947
0.67519
0.676408
0.677622
0.678834
0.680044
0.681249
0.682446
0.683593
0.684721
0.685845
0.686971
0.688098
0.689233
0.690372
0.691516
0.692664
0.693817
0.694975
0.69614
0.697311
0.698484
0.699666
0.700858
0.702051
0.703279
0.704489
0.70574
0.707049
0.70826
0.70968
0.711093
0.712315
0.714727
0.721887
0.650484
0.654708
0.658398
0.66107
0.663139
0.664756
0.666133
0.667329
0.668414
0.669441
0.670633
0.671844
0.673089
0.674361
0.675552
0.676657
0.677764
0.678882
0.680002
0.681123
0.682242
0.683357
0.684471
0.685548
0.686608
0.687661
0.688727
0.689804
0.690886
0.691973
0.693067
0.694167
0.695273
0.696387
0.697506
0.69863
0.69976
0.7009
0.702052
0.703208
0.704396
0.705572
0.706794
0.708059
0.709239
0.710638
0.712003
0.713218
0.715623
0.72273
0.671669
0.668075
0.669344
0.670501
0.671443
0.672126
0.672715
0.673292
0.673991
0.67483
0.675785
0.676665
0.677501
0.678355
0.679219
0.680106
0.681056
0.682023
0.683002
0.683988
0.684979
0.68598
0.686992
0.687979
0.688951
0.68993
0.690914
0.69191
0.692925
0.693947
0.694977
0.696016
0.697062
0.698115
0.699175
0.700243
0.70132
0.702409
0.70351
0.704619
0.705762
0.706895
0.708076
0.709291
0.710438
0.71181
0.713119
0.714323
0.716721
0.72375
0.707107
0.690351
0.686065
0.684075
0.682968
0.682245
0.681776
0.681531
0.681478
0.681576
0.681816
0.682172
0.682606
0.683102
0.683651
0.684289
0.685022
0.685789
0.686588
0.687411
0.688264
0.689126
0.689999
0.69087
0.691736
0.692616
0.693506
0.69441
0.695331
0.69627
0.697221
0.698181
0.699151
0.700131
0.701123
0.702125
0.703139
0.704165
0.705208
0.706265
0.707352
0.708431
0.709567
0.710729
0.711839
0.713177
0.714421
0.715614
0.718005
0.724936
0.728969
0.712956
0.705191
0.699991
0.696417
0.693948
0.6921
0.690772
0.689832
0.689227
0.688846
0.688657
0.688632
0.68872
0.688921
0.689285
0.68976
0.690267
0.690832
0.691436
0.692074
0.692746
0.693451
0.694188
0.694933
0.695695
0.696471
0.697261
0.698071
0.698908
0.699763
0.700632
0.701514
0.70241
0.703321
0.704247
0.705188
0.706148
0.707124
0.708115
0.709138
0.710164
0.711252
0.712353
0.713423
0.714719
0.715893
0.71707
0.719455
0.726265
0.738187
0.733331
0.724589
0.716829
0.710969
0.706686
0.703428
0.700966
0.699086
0.697716
0.696674
0.695917
0.695388
0.69504
0.694855
0.694857
0.694976
0.695197
0.695511
0.695884
0.696308
0.696791
0.69732
0.697896
0.698493
0.699114
0.699761
0.700427
0.701115
0.701826
0.702571
0.703335
0.704117
0.704917
0.705738
0.70658
0.707442
0.708321
0.709222
0.710147
0.711106
0.712073
0.713104
0.71414
0.715166
0.716414
0.71751
0.718674
0.721055
0.727702
0.74989
0.750307
0.742592
0.733201
0.725656
0.719806
0.715267
0.711721
0.708964
0.706752
0.704887
0.703398
0.702157
0.701116
0.700386
0.700141
0.700057
0.700051
0.700164
0.700353
0.70063
0.700999
0.701425
0.701911
0.702362
0.702831
0.703332
0.703859
0.704414
0.704995
0.70561
0.706255
0.706926
0.707619
0.70834
0.709087
0.709862
0.710663
0.711489
0.712342
0.71323
0.714133
0.715101
0.71607
0.71705
0.71824
0.719258
0.720409
0.722783
0.729228
0.764417
0.760735
0.755298
0.747698
0.740033
0.733002
0.727478
0.723005
0.71946
0.716652
0.714531
0.712574
0.710885
0.709489
0.708373
0.707473
0.706801
0.706345
0.70608
0.705939
0.705905
0.705986
0.706126
0.706345
0.706614
0.706909
0.707246
0.707619
0.708027
0.708462
0.708931
0.709444
0.70999
0.710568
0.711181
0.711827
0.712508
0.713221
0.713966
0.71474
0.71555
0.716384
0.717281
0.71818
0.71911
0.720231
0.721172
0.722311
0.724654
0.730874
0.766228
0.764392
0.761846
0.757805
0.752272
0.746213
0.740623
0.734991
0.730732
0.72719
0.724268
0.721842
0.719832
0.718174
0.716804
0.715693
0.714728
0.713823
0.713053
0.712465
0.712028
0.711736
0.711547
0.711456
0.711482
0.711571
0.711721
0.711918
0.712157
0.712427
0.712732
0.713093
0.713499
0.713943
0.714433
0.714962
0.715534
0.716145
0.716795
0.717482
0.718207
0.718962
0.719779
0.720602
0.721476
0.722512
0.72337
0.724496
0.726794
0.732748
0.766663
0.765733
0.764526
0.762756
0.760135
0.756502
0.751987
0.747258
0.742844
0.738659
0.735106
0.73213
0.729599
0.727428
0.725539
0.72391
0.722511
0.721323
0.720314
0.71946
0.718748
0.718175
0.717714
0.717356
0.717118
0.716984
0.716916
0.716903
0.716947
0.717022
0.717144
0.717334
0.717579
0.717867
0.718215
0.718611
0.719056
0.71955
0.72009
0.720675
0.721304
0.721973
0.722701
0.723436
0.724237
0.725166
0.725938
0.727055
0.729289
0.734936
0.766814
0.766306
0.765643
0.764803
0.763649
0.762043
0.759819
0.756892
0.753441
0.749795
0.746281
0.743022
0.74009
0.737523
0.735239
0.733229
0.73145
0.729893
0.728525
0.727333
0.726299
0.725421
0.724667
0.724033
0.723529
0.723143
0.722833
0.722588
0.722405
0.722273
0.722201
0.722199
0.722261
0.722374
0.722567
0.722812
0.723116
0.723477
0.723893
0.72436
0.724876
0.72544
0.726061
0.726706
0.727417
0.728219
0.728898
0.730018
0.732166
0.737489
0.766883
0.766575
0.766192
0.765711
0.765125
0.764378
0.763412
0.762136
0.760471
0.75837
0.755873
0.753137
0.750397
0.747771
0.745329
0.743099
0.741073
0.739231
0.737554
0.736018
0.734652
0.733453
0.73239
0.731461
0.730691
0.730034
0.729453
0.72895
0.728525
0.728172
0.727888
0.727677
0.727545
0.72748
0.727507
0.727582
0.727731
0.727949
0.728224
0.728558
0.728944
0.729386
0.729882
0.730416
0.731004
0.731665
0.732278
0.733404
0.735437
0.740392
0.766921
0.766722
0.76648
0.766191
0.765843
0.765421
0.764945
0.764344
0.76361
0.762692
0.761546
0.76012
0.758418
0.756502
0.754468
0.752413
0.750407
0.748481
0.746676
0.745007
0.743473
0.742067
0.740791
0.739634
0.738587
0.737623
0.736746
0.735965
0.735279
0.734684
0.734176
0.733752
0.733418
0.733165
0.733003
0.73291
0.732903
0.732954
0.733069
0.733258
0.733497
0.733799
0.734152
0.734554
0.734999
0.735527
0.736083
0.737179
0.7391
0.743619
0.766945
0.76681
0.76665
0.766464
0.766247
0.765995
0.765699
0.76536
0.764989
0.76454
0.764001
0.763373
0.762605
0.761687
0.760607
0.759359
0.757966
0.756463
0.754904
0.753344
0.751815
0.750341
0.748941
0.747626
0.746405
0.745272
0.744229
0.743268
0.742391
0.741604
0.740905
0.740296
0.739778
0.739346
0.739001
0.738733
0.738548
0.738429
0.738384
0.738403
0.738469
0.738612
0.738803
0.73905
0.739349
0.739751
0.740239
0.741239
0.742993
0.74722
0.766961
0.766868
0.766759
0.766633
0.76649
0.766328
0.766144
0.765934
0.765695
0.765423
0.765143
0.764818
0.764438
0.763999
0.763505
0.762923
0.762254
0.761479
0.760582
0.759578
0.758486
0.757326
0.756128
0.754919
0.75373
0.752568
0.751448
0.750374
0.749368
0.748444
0.747611
0.746866
0.746207
0.745632
0.745136
0.744715
0.744368
0.744087
0.743871
0.743719
0.743619
0.743594
0.743613
0.743691
0.743849
0.744128
0.74455
0.745453
0.747147
0.751167
0.766972
0.766907
0.766832
0.766746
0.766648
0.766538
0.766416
0.76628
0.766128
0.765959
0.765769
0.765557
0.765335
0.765102
0.764837
0.764538
0.764199
0.763821
0.763386
0.762887
0.762324
0.761685
0.760972
0.760185
0.759342
0.758448
0.757523
0.756589
0.755665
0.754776
0.753938
0.75316
0.752439
0.751775
0.751161
0.750603
0.750105
0.749667
0.749285
0.74897
0.748712
0.748521
0.748388
0.748351
0.748397
0.74857
0.748964
0.749845
0.751551
0.755317
0.766981
0.766936
0.766884
0.766824
0.766756
0.76668
0.766596
0.766503
0.766401
0.766289
0.766166
0.766031
0.765883
0.765721
0.765542
0.76536
0.765172
0.764961
0.764724
0.764458
0.76416
0.763832
0.763461
0.763039
0.762565
0.762039
0.761459
0.760836
0.760166
0.759477
0.758783
0.758109
0.757446
0.756809
0.756194
0.755616
0.755071
0.754577
0.754125
0.753728
0.753387
0.753109
0.752902
0.752803
0.752819
0.752964
0.753383
0.754327
0.75604
0.759428
0.766987
0.766957
0.766921
0.76688
0.766834
0.766781
0.766722
0.766657
0.766586
0.766509
0.766425
0.766334
0.766236
0.76613
0.766016
0.765892
0.765757
0.765609
0.765448
0.765293
0.765122
0.764931
0.764717
0.764474
0.764198
0.763874
0.763515
0.763117
0.762677
0.762208
0.761714
0.761206
0.760698
0.760186
0.75968
0.75919
0.758717
0.758283
0.757882
0.757527
0.757224
0.756986
0.756829
0.756782
0.756845
0.757081
0.757655
0.758738
0.760397
0.763013
0.766992
0.766973
0.766949
0.766922
0.76689
0.766854
0.766813
0.766768
0.766719
0.766665
0.766606
0.766544
0.766477
0.766405
0.766328
0.766245
0.766156
0.766061
0.765958
0.765846
0.765724
0.765588
0.765436
0.765277
0.765094
0.764882
0.76464
0.764367
0.764062
0.763733
0.763384
0.763021
0.762651
0.762285
0.761928
0.761583
0.761256
0.760962
0.760701
0.760485
0.760319
0.76022
0.760216
0.760291
0.76048
0.760892
0.761613
0.762628
0.763928
0.765358
0.766996
0.766984
0.76697
0.766953
0.766932
0.766908
0.766881
0.766851
0.766817
0.76678
0.76674
0.766697
0.766651
0.766602
0.76655
0.766494
0.766435
0.766372
0.766304
0.766231
0.766152
0.766062
0.765959
0.765842
0.765707
0.765548
0.765367
0.765177
0.764964
0.764731
0.764482
0.764225
0.763969
0.763725
0.763498
0.763291
0.763111
0.762965
0.762858
0.762803
0.762809
0.76286
0.762987
0.763223
0.763553
0.763998
0.764592
0.765247
0.765954
0.766513
0.766999
0.766994
0.766986
0.766976
0.766964
0.76695
0.766933
0.766914
0.766893
0.76687
0.766844
0.766816
0.766786
0.766753
0.766719
0.766683
0.766645
0.766604
0.766561
0.766512
0.766459
0.766401
0.766335
0.766259
0.766171
0.766066
0.76594
0.765795
0.765637
0.76547
0.765299
0.765142
0.764993
0.76486
0.764738
0.764642
0.764578
0.764552
0.764562
0.764601
0.764701
0.764856
0.76506
0.765302
0.765598
0.765926
0.766256
0.766536
0.766751
0.766892
0.767
0.766999
0.766997
0.766993
0.766989
0.766983
0.766976
0.766967
0.766957
0.766945
0.766932
0.766917
0.7669
0.766882
0.766864
0.766843
0.766822
0.7668
0.766776
0.766748
0.766717
0.766682
0.766642
0.766596
0.766544
0.766484
0.766417
0.766344
0.766269
0.766193
0.766119
0.766052
0.765997
0.765958
0.765939
0.765941
0.765967
0.766016
0.766088
0.766177
0.766282
0.766391
0.766504
0.766614
0.766715
0.766802
0.766873
0.766925
0.766959
0.766984
)
;

boundaryField
{
    AXIS
    {
        type            empty;
    }
    OUTLET
    {
        type            calculated;
        value           nonuniform List<scalar> 
25
(
0.720624
0.720817
0.721244
0.721887
0.72273
0.72375
0.724936
0.726265
0.727702
0.729228
0.730874
0.732748
0.734936
0.737489
0.740392
0.743619
0.74722
0.751167
0.755317
0.759428
0.763013
0.765358
0.766513
0.766892
0.766984
)
;
    }
    COFLOW
    {
        type            calculated;
        value           uniform 0.767;
    }
    PILOT
    {
        type            calculated;
        value           uniform 0.734683;
    }
    FUEL
    {
        type            calculated;
        value           uniform 0.647;
    }
    WALL
    {
        type            calculated;
        value           nonuniform List<scalar> 
50
(
0.767
0.766999
0.766997
0.766993
0.766989
0.766983
0.766976
0.766967
0.766957
0.766945
0.766932
0.766917
0.7669
0.766882
0.766864
0.766843
0.766822
0.7668
0.766776
0.766748
0.766717
0.766682
0.766642
0.766596
0.766544
0.766484
0.766417
0.766344
0.766269
0.766193
0.766119
0.766052
0.765997
0.765958
0.765939
0.765941
0.765967
0.766016
0.766088
0.766177
0.766282
0.766391
0.766504
0.766614
0.766715
0.766802
0.766873
0.766925
0.766959
0.766984
)
;
    }
    front
    {
        type            wedge;
    }
    back
    {
        type            wedge;
    }
}


// ************************************************************************* //
