/*--------------------------------*- C++ -*----------------------------------*\
| =========                 |                                                 |
| \\      /  F ield         | OpenFOAM: The Open Source CFD Toolbox           |
|  \\    /   O peration     | Version:  2.4.x                                 |
|   \\  /    A nd           | Web:      www.OpenFOAM.org                      |
|    \\/     M anipulation  |                                                 |
\*---------------------------------------------------------------------------*/
FoamFile
{
    version     2.0;
    format      ascii;
    class       volScalarField;
    location    "0.1";
    object      N2O;
}
// * * * * * * * * * * * * * * * * * * * * * * * * * * * * * * * * * * * * * //

dimensions      [0 0 0 0 0 0 0];

internalField   nonuniform List<scalar> 
1250
(
6.48544e-10
2.61166e-09
5.54667e-09
9.09283e-09
1.32368e-08
1.78945e-08
2.2967e-08
2.8267e-08
3.34274e-08
3.75261e-08
4.12967e-08
4.42092e-08
4.67646e-08
4.89936e-08
5.10367e-08
5.26778e-08
5.40568e-08
5.50424e-08
5.57012e-08
5.5987e-08
5.60365e-08
5.58274e-08
5.5447e-08
5.59743e-08
5.61892e-08
5.60281e-08
5.56905e-08
5.52813e-08
5.4754e-08
5.42346e-08
5.37124e-08
5.32323e-08
5.32097e-08
5.41905e-08
5.51916e-08
5.62885e-08
5.74687e-08
5.87626e-08
6.03026e-08
6.1961e-08
6.40285e-08
6.62124e-08
6.88899e-08
7.24756e-08
7.5869e-08
8.07623e-08
8.75282e-08
9.58236e-08
1.18442e-07
1.9982e-07
7.23456e-10
2.92482e-09
6.19106e-09
1.01329e-08
1.47387e-08
1.98618e-08
2.5374e-08
3.0992e-08
3.54613e-08
3.96175e-08
4.33794e-08
4.62721e-08
4.87592e-08
5.09978e-08
5.29754e-08
5.45621e-08
5.58776e-08
5.68124e-08
5.73692e-08
5.76211e-08
5.76085e-08
5.73619e-08
5.6954e-08
5.74261e-08
5.77117e-08
5.74685e-08
5.71032e-08
5.66342e-08
5.60876e-08
5.5544e-08
5.50061e-08
5.4519e-08
5.43476e-08
5.53262e-08
5.63365e-08
5.74419e-08
5.86331e-08
5.9958e-08
6.15225e-08
6.32203e-08
6.53221e-08
6.75727e-08
7.03009e-08
7.39638e-08
7.74096e-08
8.24031e-08
8.92332e-08
9.76921e-08
1.20734e-07
2.02688e-07
9.41392e-10
3.84244e-09
8.11244e-09
1.3266e-08
1.92196e-08
2.55709e-08
3.15302e-08
3.61377e-08
4.05158e-08
4.48058e-08
4.84162e-08
5.11676e-08
5.35689e-08
5.5703e-08
5.74563e-08
5.89251e-08
6.00815e-08
6.08187e-08
6.12131e-08
6.13288e-08
6.11873e-08
6.08508e-08
6.0378e-08
6.07093e-08
6.10107e-08
6.07406e-08
6.02723e-08
5.96739e-08
5.90681e-08
5.84567e-08
5.78713e-08
5.73618e-08
5.69994e-08
5.78355e-08
5.88796e-08
6.00102e-08
6.12259e-08
6.26339e-08
6.42375e-08
6.60285e-08
6.81771e-08
7.05699e-08
7.34105e-08
7.72386e-08
8.07995e-08
8.60349e-08
9.31365e-08
1.01996e-07
1.26134e-07
2.09035e-07
1.51526e-09
6.3087e-09
1.34376e-08
2.18531e-08
2.98793e-08
3.55991e-08
4.07406e-08
4.53987e-08
4.97631e-08
5.40075e-08
5.71643e-08
5.96134e-08
6.16807e-08
6.34256e-08
6.48673e-08
6.60831e-08
6.68784e-08
6.72889e-08
6.73944e-08
6.72515e-08
6.69107e-08
6.64119e-08
6.58363e-08
6.58927e-08
6.60198e-08
6.60094e-08
6.52967e-08
6.45578e-08
6.38219e-08
6.30938e-08
6.24451e-08
6.19324e-08
6.1525e-08
6.18717e-08
6.29335e-08
6.40765e-08
6.53665e-08
6.68403e-08
6.85319e-08
7.04086e-08
7.27024e-08
7.52559e-08
7.83426e-08
8.2387e-08
8.61763e-08
9.18357e-08
9.91706e-08
1.08584e-07
1.34338e-07
2.1876e-07
3.7147e-09
1.57594e-08
3.09523e-08
4.00188e-08
4.67407e-08
5.20338e-08
5.66043e-08
6.08007e-08
6.47095e-08
6.85613e-08
7.06906e-08
7.2367e-08
7.37207e-08
7.47969e-08
7.57034e-08
7.65387e-08
7.67298e-08
7.65907e-08
7.62527e-08
7.57221e-08
7.50732e-08
7.43092e-08
7.3516e-08
7.32891e-08
7.31331e-08
7.28765e-08
7.25103e-08
7.15157e-08
7.05759e-08
6.97201e-08
6.89706e-08
6.83367e-08
6.79014e-08
6.76883e-08
6.86632e-08
6.98688e-08
7.12257e-08
7.27825e-08
7.45592e-08
7.65657e-08
7.90664e-08
8.18211e-08
8.52311e-08
8.95157e-08
9.36208e-08
9.98061e-08
1.07654e-07
1.17552e-07
1.45581e-07
2.31637e-07
5.42759e-08
6.3463e-08
6.45058e-08
6.6985e-08
6.98041e-08
7.25159e-08
7.54895e-08
7.87063e-08
8.20338e-08
8.51706e-08
8.65505e-08
8.81076e-08
8.97868e-08
9.02464e-08
9.04656e-08
9.06726e-08
8.99263e-08
8.90693e-08
8.80865e-08
8.70022e-08
8.59353e-08
8.48487e-08
8.38059e-08
8.31457e-08
8.27017e-08
8.2175e-08
8.1638e-08
8.09183e-08
7.96774e-08
7.85425e-08
7.76624e-08
7.69513e-08
7.64304e-08
7.61643e-08
7.64712e-08
7.76647e-08
7.90859e-08
8.06858e-08
8.26058e-08
8.48068e-08
8.75383e-08
9.05723e-08
9.42875e-08
9.8908e-08
1.03382e-07
1.10256e-07
1.18573e-07
1.29432e-07
1.59868e-07
2.47379e-07
2.10228e-07
1.23892e-07
1.02422e-07
9.67595e-08
9.55827e-08
9.63435e-08
9.81836e-08
1.00525e-07
1.03279e-07
1.04986e-07
1.05408e-07
1.06108e-07
1.0702e-07
1.0813e-07
1.09226e-07
1.08448e-07
1.06673e-07
1.0489e-07
1.03129e-07
1.01395e-07
9.97967e-08
9.83159e-08
9.7007e-08
9.60021e-08
9.51014e-08
9.41972e-08
9.3342e-08
9.25721e-08
9.1543e-08
9.01107e-08
8.89258e-08
8.79959e-08
8.73558e-08
8.70304e-08
8.71251e-08
8.79278e-08
8.93303e-08
9.10188e-08
9.30168e-08
9.54394e-08
9.83905e-08
1.0169e-07
1.05822e-07
1.10775e-07
1.15747e-07
1.23363e-07
1.32364e-07
1.44143e-07
1.77117e-07
2.65533e-07
3.61291e-07
1.8175e-07
1.36859e-07
1.25517e-07
1.21849e-07
1.2214e-07
1.23748e-07
1.25875e-07
1.28334e-07
1.28438e-07
1.28014e-07
1.27898e-07
1.28091e-07
1.28499e-07
1.2919e-07
1.29503e-07
1.26658e-07
1.23937e-07
1.214e-07
1.19051e-07
1.16904e-07
1.15031e-07
1.13456e-07
1.12144e-07
1.10716e-07
1.09396e-07
1.08147e-07
1.07016e-07
1.06097e-07
1.04678e-07
1.03166e-07
1.01982e-07
1.01123e-07
1.0063e-07
1.00685e-07
1.01195e-07
1.02413e-07
1.04159e-07
1.06305e-07
1.08857e-07
1.12013e-07
1.15577e-07
1.20069e-07
1.25449e-07
1.30864e-07
1.39541e-07
1.48926e-07
1.61902e-07
1.97371e-07
2.84953e-07
4.27942e-07
2.16569e-07
1.59484e-07
1.48208e-07
1.46838e-07
1.47517e-07
1.50175e-07
1.52955e-07
1.55289e-07
1.54509e-07
1.53693e-07
1.53081e-07
1.52707e-07
1.52582e-07
1.52788e-07
1.51931e-07
1.49859e-07
1.46295e-07
1.43081e-07
1.40125e-07
1.37502e-07
1.35264e-07
1.3338e-07
1.31938e-07
1.29851e-07
1.28027e-07
1.26359e-07
1.24927e-07
1.23665e-07
1.22714e-07
1.2074e-07
1.19138e-07
1.18016e-07
1.17329e-07
1.17288e-07
1.17788e-07
1.18841e-07
1.20516e-07
1.22681e-07
1.25323e-07
1.28606e-07
1.32527e-07
1.37465e-07
1.4327e-07
1.49364e-07
1.58733e-07
1.6863e-07
1.82667e-07
2.2028e-07
3.02485e-07
3.73338e-07
1.87059e-07
1.49653e-07
1.57541e-07
1.64227e-07
1.70078e-07
1.74851e-07
1.79519e-07
1.82277e-07
1.83434e-07
1.8379e-07
1.83829e-07
1.83602e-07
1.83464e-07
1.8343e-07
1.805e-07
1.77548e-07
1.73309e-07
1.69367e-07
1.65738e-07
1.62509e-07
1.59787e-07
1.57421e-07
1.55486e-07
1.5295e-07
1.50487e-07
1.48289e-07
1.46446e-07
1.44881e-07
1.43654e-07
1.42063e-07
1.39904e-07
1.38326e-07
1.37373e-07
1.37033e-07
1.37455e-07
1.3851e-07
1.40309e-07
1.42516e-07
1.45213e-07
1.48648e-07
1.52866e-07
1.58188e-07
1.64193e-07
1.70805e-07
1.80867e-07
1.90996e-07
2.06218e-07
2.45055e-07
3.19714e-07
5.27946e-08
7.19971e-08
1.08116e-07
1.38499e-07
1.64675e-07
1.81628e-07
1.93261e-07
2.02274e-07
2.06566e-07
2.09786e-07
2.12539e-07
2.14745e-07
2.15924e-07
2.16778e-07
2.17042e-07
2.12912e-07
2.09147e-07
2.04411e-07
1.99852e-07
1.9566e-07
1.91877e-07
1.88681e-07
1.85846e-07
1.83564e-07
1.8074e-07
1.77618e-07
1.74938e-07
1.72626e-07
1.70677e-07
1.69127e-07
1.679e-07
1.64992e-07
1.62898e-07
1.61441e-07
1.60865e-07
1.61027e-07
1.62056e-07
1.63803e-07
1.6656e-07
1.69482e-07
1.72914e-07
1.77219e-07
1.82739e-07
1.88934e-07
1.95999e-07
2.06592e-07
2.16877e-07
2.32862e-07
2.68837e-07
3.36026e-07
1.23775e-08
2.98321e-08
4.7413e-08
8.81914e-08
1.33581e-07
1.67901e-07
1.94452e-07
2.12521e-07
2.25068e-07
2.33639e-07
2.38563e-07
2.42204e-07
2.4431e-07
2.45668e-07
2.45339e-07
2.4369e-07
2.41655e-07
2.3828e-07
2.34367e-07
2.30517e-07
2.26873e-07
2.23651e-07
2.20787e-07
2.18395e-07
2.1554e-07
2.11794e-07
2.08572e-07
2.05808e-07
2.03497e-07
2.01546e-07
2.00026e-07
1.96657e-07
1.93868e-07
1.91872e-07
1.90822e-07
1.9066e-07
1.91343e-07
1.93052e-07
1.95583e-07
1.99108e-07
2.03222e-07
2.07441e-07
2.13041e-07
2.19321e-07
2.26664e-07
2.37187e-07
2.47214e-07
2.63659e-07
2.9428e-07
3.51516e-07
4.36565e-09
1.40293e-08
2.36494e-08
3.98664e-08
6.90176e-08
1.17952e-07
1.62706e-07
1.97813e-07
2.23758e-07
2.42134e-07
2.55104e-07
2.65078e-07
2.71731e-07
2.76353e-07
2.78064e-07
2.78017e-07
2.76826e-07
2.74925e-07
2.72619e-07
2.70116e-07
2.67587e-07
2.65256e-07
2.63115e-07
2.61301e-07
2.58873e-07
2.5486e-07
2.51279e-07
2.48118e-07
2.45444e-07
2.43075e-07
2.41043e-07
2.36352e-07
2.32687e-07
2.29984e-07
2.28394e-07
2.27727e-07
2.28056e-07
2.29416e-07
2.31685e-07
2.34967e-07
2.39109e-07
2.44257e-07
2.50117e-07
2.56086e-07
2.63339e-07
2.73073e-07
2.82267e-07
2.96682e-07
3.21277e-07
3.649e-07
2.12208e-09
7.42446e-09
1.35926e-08
2.16631e-08
3.40763e-08
5.3771e-08
8.48347e-08
1.29896e-07
1.82189e-07
2.18186e-07
2.46424e-07
2.67957e-07
2.8395e-07
2.96129e-07
3.04785e-07
3.10669e-07
3.13871e-07
3.15667e-07
3.16167e-07
3.15917e-07
3.15139e-07
3.14043e-07
3.1284e-07
3.11754e-07
3.09668e-07
3.06139e-07
3.028e-07
2.99715e-07
2.96954e-07
2.94498e-07
2.89051e-07
2.8367e-07
2.79314e-07
2.75853e-07
2.73645e-07
2.72355e-07
2.72095e-07
2.7283e-07
2.74561e-07
2.77234e-07
2.80772e-07
2.85242e-07
2.90596e-07
2.96542e-07
3.03465e-07
3.11193e-07
3.18066e-07
3.2965e-07
3.47107e-07
3.73254e-07
1.27616e-09
4.51972e-09
8.40731e-09
1.34949e-08
2.01519e-08
2.94942e-08
4.26327e-08
6.14246e-08
8.78322e-08
1.22609e-07
1.64562e-07
2.10434e-07
2.54447e-07
2.81883e-07
3.03414e-07
3.20095e-07
3.32566e-07
3.41822e-07
3.48689e-07
3.54253e-07
3.57833e-07
3.602e-07
3.61786e-07
3.62839e-07
3.6219e-07
3.60736e-07
3.58981e-07
3.57156e-07
3.51552e-07
3.45123e-07
3.39234e-07
3.34031e-07
3.29638e-07
3.26033e-07
3.23514e-07
3.2166e-07
3.208e-07
3.20884e-07
3.21781e-07
3.23558e-07
3.2609e-07
3.29395e-07
3.3328e-07
3.37729e-07
3.42645e-07
3.47805e-07
3.52488e-07
3.59885e-07
3.67736e-07
3.73843e-07
8.68007e-10
3.04127e-09
5.67816e-09
8.95614e-09
1.31931e-08
1.87615e-08
2.54402e-08
3.45499e-08
4.62688e-08
6.16874e-08
8.17382e-08
1.07728e-07
1.39063e-07
1.7426e-07
2.1062e-07
2.45438e-07
2.7706e-07
3.04773e-07
3.27382e-07
3.45929e-07
3.60044e-07
3.70662e-07
3.78389e-07
3.84078e-07
3.87297e-07
3.88865e-07
3.89299e-07
3.88175e-07
3.86121e-07
3.83505e-07
3.80368e-07
3.77333e-07
3.74472e-07
3.71824e-07
3.69722e-07
3.68085e-07
3.6711e-07
3.66623e-07
3.66708e-07
3.67465e-07
3.68712e-07
3.70443e-07
3.72354e-07
3.74596e-07
3.76877e-07
3.78824e-07
3.80166e-07
3.80666e-07
3.77688e-07
3.62366e-07
6.31073e-10
2.17524e-09
4.03999e-09
6.29746e-09
9.06989e-09
1.25268e-08
1.68901e-08
2.22082e-08
2.8351e-08
3.61674e-08
4.60676e-08
5.79373e-08
7.28752e-08
9.11037e-08
1.12683e-07
1.37581e-07
1.64968e-07
1.93697e-07
2.22427e-07
2.49787e-07
2.75575e-07
2.98937e-07
3.19815e-07
3.37711e-07
3.5266e-07
3.64789e-07
3.74564e-07
3.82256e-07
3.88218e-07
3.92144e-07
3.94757e-07
3.96666e-07
3.97354e-07
3.97765e-07
3.97772e-07
3.97611e-07
3.97494e-07
3.97421e-07
3.97434e-07
3.97549e-07
3.97757e-07
3.98008e-07
3.98143e-07
3.9811e-07
3.97561e-07
3.962e-07
3.92966e-07
3.84887e-07
3.72036e-07
3.34896e-07
4.72342e-10
1.60521e-09
2.95949e-09
4.57243e-09
6.49896e-09
8.81178e-09
1.16017e-08
1.49792e-08
1.90791e-08
2.39879e-08
2.92961e-08
3.5721e-08
4.34982e-08
5.26966e-08
6.31804e-08
7.57565e-08
9.01912e-08
1.07053e-07
1.26367e-07
1.47956e-07
1.71295e-07
1.95793e-07
2.20732e-07
2.45202e-07
2.68179e-07
2.89778e-07
3.09632e-07
3.27239e-07
3.42941e-07
3.55826e-07
3.66245e-07
3.74892e-07
3.81839e-07
3.87248e-07
3.91345e-07
3.94676e-07
3.96992e-07
3.98806e-07
4.00169e-07
4.01066e-07
4.01492e-07
4.01231e-07
4.0038e-07
3.98694e-07
3.95713e-07
3.90967e-07
3.82811e-07
3.68036e-07
3.45651e-07
2.88361e-07
3.55134e-10
1.19534e-09
2.19117e-09
3.36546e-09
4.74738e-09
6.37302e-09
8.28542e-09
1.0534e-08
1.31823e-08
1.6316e-08
2.0001e-08
2.43247e-08
2.89991e-08
3.40998e-08
4.00221e-08
4.68759e-08
5.48023e-08
6.34133e-08
7.33283e-08
8.4915e-08
9.80082e-08
1.13103e-07
1.29957e-07
1.48801e-07
1.68729e-07
1.89731e-07
2.11219e-07
2.32419e-07
2.52885e-07
2.71798e-07
2.88751e-07
3.03487e-07
3.16698e-07
3.28415e-07
3.38159e-07
3.46653e-07
3.53709e-07
3.59586e-07
3.64577e-07
3.67879e-07
3.70208e-07
3.71342e-07
3.71211e-07
3.69046e-07
3.65002e-07
3.58208e-07
3.46235e-07
3.26364e-07
2.94355e-07
2.25066e-07
2.63206e-10
8.81959e-10
1.61286e-09
2.47165e-09
3.47651e-09
4.64793e-09
6.00913e-09
7.59341e-09
9.42786e-09
1.15429e-08
1.39733e-08
1.67571e-08
1.99384e-08
2.35648e-08
2.76903e-08
3.20335e-08
3.65237e-08
4.1477e-08
4.71264e-08
5.35708e-08
6.09077e-08
6.90606e-08
7.83865e-08
8.91084e-08
1.01221e-07
1.14744e-07
1.29731e-07
1.45732e-07
1.62833e-07
1.79883e-07
1.9706e-07
2.13131e-07
2.28805e-07
2.43174e-07
2.5683e-07
2.69001e-07
2.80307e-07
2.8929e-07
2.97235e-07
3.03511e-07
3.08026e-07
3.11115e-07
3.12308e-07
3.10684e-07
3.06027e-07
2.98256e-07
2.84039e-07
2.60309e-07
2.21349e-07
1.51555e-07
1.88348e-10
6.32339e-10
1.15956e-09
1.78208e-09
2.51359e-09
3.36788e-09
4.35851e-09
5.50038e-09
6.80889e-09
8.30033e-09
9.99247e-09
1.19035e-08
1.4054e-08
1.64663e-08
1.91654e-08
2.21392e-08
2.53188e-08
2.88518e-08
3.27887e-08
3.66921e-08
4.10754e-08
4.60462e-08
5.17089e-08
5.81778e-08
6.55651e-08
7.32015e-08
8.18849e-08
9.1723e-08
1.02728e-07
1.14785e-07
1.27555e-07
1.40731e-07
1.53947e-07
1.67178e-07
1.80035e-07
1.92225e-07
2.0373e-07
2.13643e-07
2.22402e-07
2.29671e-07
2.35004e-07
2.38251e-07
2.39078e-07
2.36686e-07
2.31377e-07
2.21938e-07
2.04973e-07
1.7648e-07
1.37181e-07
8.21834e-08
1.26017e-10
4.29078e-10
7.9666e-10
1.23871e-09
1.76425e-09
2.3818e-09
3.09971e-09
3.92641e-09
4.87059e-09
5.94069e-09
7.14688e-09
8.49938e-09
1.00079e-08
1.16844e-08
1.34914e-08
1.54306e-08
1.75601e-08
1.99032e-08
2.24901e-08
2.53611e-08
2.8562e-08
3.21556e-08
3.62262e-08
3.97325e-08
4.3814e-08
4.86365e-08
5.42344e-08
6.06386e-08
6.78538e-08
7.60267e-08
8.50051e-08
9.43806e-08
1.03951e-07
1.13561e-07
1.22985e-07
1.31965e-07
1.403e-07
1.47684e-07
1.53985e-07
1.58844e-07
1.62186e-07
1.63585e-07
1.62361e-07
1.58972e-07
1.51817e-07
1.39385e-07
1.19573e-07
9.42677e-08
6.49174e-08
3.45943e-08
7.2313e-11
2.59366e-10
4.99335e-10
7.98878e-10
1.16356e-09
1.59817e-09
2.10777e-09
2.69723e-09
3.37108e-09
4.13433e-09
4.99239e-09
5.95165e-09
6.99258e-09
8.11513e-09
9.34088e-09
1.06774e-08
1.21361e-08
1.37315e-08
1.54843e-08
1.74194e-08
1.9567e-08
2.158e-08
2.37259e-08
2.6169e-08
2.8994e-08
3.22952e-08
3.61134e-08
4.051e-08
4.55197e-08
5.11009e-08
5.71248e-08
6.33715e-08
6.96416e-08
7.59122e-08
8.19358e-08
8.73799e-08
9.20613e-08
9.58054e-08
9.84691e-08
9.97626e-08
9.94995e-08
9.80966e-08
9.48349e-08
8.89717e-08
7.99493e-08
6.79945e-08
5.33581e-08
3.81102e-08
2.24858e-08
1.04497e-08
2.5743e-11
1.15048e-10
2.54509e-10
4.39389e-10
6.7201e-10
9.55448e-10
1.29415e-09
1.6908e-09
2.14079e-09
2.647e-09
3.21457e-09
3.84587e-09
4.54326e-09
5.30802e-09
6.13957e-09
7.03964e-09
8.0148e-09
9.07463e-09
1.01432e-08
1.11621e-08
1.22605e-08
1.34632e-08
1.4811e-08
1.6359e-08
1.81708e-08
2.03168e-08
2.26747e-08
2.53027e-08
2.83155e-08
3.17016e-08
3.54503e-08
3.9581e-08
4.37e-08
4.76487e-08
5.07785e-08
5.32626e-08
5.49767e-08
5.57855e-08
5.57305e-08
5.49669e-08
5.2766e-08
4.92682e-08
4.46826e-08
3.91926e-08
3.24648e-08
2.44952e-08
1.67299e-08
1.03165e-08
5.50625e-09
2.38411e-09
1.12934e-12
2.34414e-11
6.96247e-11
1.44248e-10
2.48585e-10
3.84772e-10
5.54826e-10
7.53285e-10
9.82176e-10
1.24495e-09
1.5416e-09
1.87142e-09
2.23262e-09
2.62136e-09
3.02738e-09
3.45403e-09
3.90023e-09
4.36435e-09
4.83754e-09
5.26746e-09
5.72782e-09
6.23019e-09
6.79247e-09
7.43771e-09
8.18954e-09
9.06851e-09
1.00874e-08
1.12408e-08
1.25056e-08
1.38469e-08
1.52226e-08
1.65569e-08
1.77618e-08
1.87592e-08
1.94756e-08
1.98449e-08
1.98169e-08
1.93665e-08
1.84672e-08
1.7159e-08
1.54575e-08
1.32717e-08
1.08946e-08
8.55011e-09
6.36402e-09
4.44744e-09
2.8562e-09
1.69979e-09
9.34859e-10
3.68882e-10
)
;

boundaryField
{
    AXIS
    {
        type            empty;
    }
    OUTLET
    {
        type            calculated;
        value           nonuniform List<scalar> 
25
(
1.9982e-07
2.02688e-07
2.09035e-07
2.1876e-07
2.31637e-07
2.47379e-07
2.65533e-07
2.84953e-07
3.02485e-07
3.19714e-07
3.36026e-07
3.51516e-07
3.649e-07
3.73254e-07
3.73843e-07
3.62366e-07
3.34896e-07
2.88361e-07
2.25066e-07
1.51555e-07
8.21834e-08
3.45943e-08
1.04497e-08
2.38411e-09
3.68882e-10
)
;
    }
    COFLOW
    {
        type            calculated;
        value           uniform 0;
    }
    PILOT
    {
        type            calculated;
        value           uniform 3.77926e-07;
    }
    FUEL
    {
        type            calculated;
        value           uniform 0;
    }
    WALL
    {
        type            calculated;
        value           nonuniform List<scalar> 
50
(
1.12934e-12
2.34414e-11
6.96247e-11
1.44248e-10
2.48585e-10
3.84772e-10
5.54826e-10
7.53285e-10
9.82176e-10
1.24495e-09
1.5416e-09
1.87142e-09
2.23262e-09
2.62136e-09
3.02738e-09
3.45403e-09
3.90023e-09
4.36435e-09
4.83754e-09
5.26746e-09
5.72782e-09
6.23019e-09
6.79247e-09
7.43771e-09
8.18954e-09
9.06851e-09
1.00874e-08
1.12408e-08
1.25056e-08
1.38469e-08
1.52226e-08
1.65569e-08
1.77618e-08
1.87592e-08
1.94756e-08
1.98449e-08
1.98169e-08
1.93665e-08
1.84672e-08
1.7159e-08
1.54575e-08
1.32717e-08
1.08946e-08
8.55011e-09
6.36402e-09
4.44744e-09
2.8562e-09
1.69979e-09
9.34859e-10
3.68882e-10
)
;
    }
    front
    {
        type            wedge;
    }
    back
    {
        type            wedge;
    }
}


// ************************************************************************* //
