/*--------------------------------*- C++ -*----------------------------------*\
| =========                 |                                                 |
| \\      /  F ield         | OpenFOAM: The Open Source CFD Toolbox           |
|  \\    /   O peration     | Version:  2.4.x                                 |
|   \\  /    A nd           | Web:      www.OpenFOAM.org                      |
|    \\/     M anipulation  |                                                 |
\*---------------------------------------------------------------------------*/
FoamFile
{
    version     2.0;
    format      ascii;
    class       volScalarField;
    location    "0.1";
    object      NCO;
}
// * * * * * * * * * * * * * * * * * * * * * * * * * * * * * * * * * * * * * //

dimensions      [0 0 0 0 0 0 0];

internalField   nonuniform List<scalar> 
1250
(
2.64992e-11
1.05546e-10
2.16229e-10
3.76515e-10
6.23795e-10
9.85009e-10
1.47268e-09
2.0827e-09
2.7837e-09
3.55411e-09
4.34414e-09
5.03468e-09
5.72515e-09
6.38006e-09
7.02779e-09
7.64017e-09
8.0823e-09
8.32622e-09
8.56713e-09
8.8123e-09
9.07966e-09
9.35866e-09
9.62469e-09
9.59127e-09
9.5475e-09
9.56806e-09
9.64338e-09
9.76175e-09
9.91261e-09
1.01021e-08
1.03323e-08
1.05887e-08
1.08075e-08
1.09163e-08
1.10766e-08
1.12902e-08
1.15485e-08
1.18589e-08
1.22205e-08
1.26205e-08
1.30634e-08
1.35147e-08
1.40073e-08
1.44908e-08
1.49737e-08
1.55007e-08
1.58188e-08
1.61616e-08
1.66443e-08
1.54933e-08
3.01263e-11
1.20422e-10
2.45578e-10
4.3614e-10
7.35757e-10
1.16666e-09
1.73496e-09
2.41581e-09
3.17804e-09
3.99807e-09
4.81115e-09
5.52211e-09
6.20973e-09
6.87245e-09
7.51783e-09
8.10541e-09
8.51806e-09
8.74805e-09
8.97012e-09
9.20651e-09
9.464e-09
9.72253e-09
9.96363e-09
9.91613e-09
9.88479e-09
9.89973e-09
9.96877e-09
1.00769e-08
1.02189e-08
1.04024e-08
1.06226e-08
1.08712e-08
1.11066e-08
1.12059e-08
1.13563e-08
1.15595e-08
1.18093e-08
1.21107e-08
1.2462e-08
1.28501e-08
1.32795e-08
1.37171e-08
1.41959e-08
1.46616e-08
1.51287e-08
1.56384e-08
1.59281e-08
1.62504e-08
1.66839e-08
1.54249e-08
4.11964e-11
1.64832e-10
3.43068e-10
6.45397e-10
1.119e-09
1.75338e-09
2.51796e-09
3.36212e-09
4.2556e-09
5.17206e-09
6.01303e-09
6.7325e-09
7.41788e-09
8.07185e-09
8.66387e-09
9.20848e-09
9.54357e-09
9.72436e-09
9.9102e-09
1.01177e-08
1.03344e-08
1.05411e-08
1.07273e-08
1.06678e-08
1.06404e-08
1.06474e-08
1.06969e-08
1.07779e-08
1.09005e-08
1.10658e-08
1.12646e-08
1.14928e-08
1.17422e-08
1.18392e-08
1.19682e-08
1.21477e-08
1.23764e-08
1.26581e-08
1.29836e-08
1.33458e-08
1.37461e-08
1.4153e-08
1.4602e-08
1.50276e-08
1.54618e-08
1.59305e-08
1.6145e-08
1.6408e-08
1.6732e-08
1.52739e-08
7.36421e-11
2.96452e-10
6.99119e-10
1.40154e-09
2.33293e-09
3.37425e-09
4.44792e-09
5.52616e-09
6.54017e-09
7.52193e-09
8.31915e-09
8.98406e-09
9.58484e-09
1.01344e-08
1.06285e-08
1.10709e-08
1.12561e-08
1.13475e-08
1.14637e-08
1.15906e-08
1.17134e-08
1.18255e-08
1.19637e-08
1.18976e-08
1.18331e-08
1.18312e-08
1.18273e-08
1.18683e-08
1.19578e-08
1.20869e-08
1.22516e-08
1.24397e-08
1.26522e-08
1.27962e-08
1.28851e-08
1.30274e-08
1.32214e-08
1.34652e-08
1.37495e-08
1.40705e-08
1.44233e-08
1.4783e-08
1.51823e-08
1.55448e-08
1.59256e-08
1.63172e-08
1.6443e-08
1.66197e-08
1.67902e-08
1.5027e-08
2.25742e-10
1.08688e-09
2.68693e-09
4.55076e-09
6.24883e-09
7.74145e-09
8.93285e-09
1.00497e-08
1.09666e-08
1.17919e-08
1.22857e-08
1.26968e-08
1.30474e-08
1.33481e-08
1.36178e-08
1.38719e-08
1.38176e-08
1.3751e-08
1.37045e-08
1.36721e-08
1.36704e-08
1.37017e-08
1.37683e-08
1.36558e-08
1.35048e-08
1.34095e-08
1.33758e-08
1.33605e-08
1.33958e-08
1.34683e-08
1.3571e-08
1.37029e-08
1.38622e-08
1.40361e-08
1.40799e-08
1.41676e-08
1.43059e-08
1.44926e-08
1.47185e-08
1.49803e-08
1.52673e-08
1.55621e-08
1.58926e-08
1.61729e-08
1.64794e-08
1.67652e-08
1.6752e-08
1.6833e-08
1.67927e-08
1.46825e-08
7.20391e-09
1.07541e-08
1.13029e-08
1.20277e-08
1.27784e-08
1.35226e-08
1.41945e-08
1.49219e-08
1.56318e-08
1.63024e-08
1.67697e-08
1.73284e-08
1.7957e-08
1.79482e-08
1.78444e-08
1.77442e-08
1.7338e-08
1.70003e-08
1.67251e-08
1.6507e-08
1.63452e-08
1.62288e-08
1.61483e-08
1.59194e-08
1.56352e-08
1.54368e-08
1.53197e-08
1.52525e-08
1.51968e-08
1.51824e-08
1.52099e-08
1.52612e-08
1.53347e-08
1.54263e-08
1.54934e-08
1.55041e-08
1.55678e-08
1.56796e-08
1.58274e-08
1.60116e-08
1.62132e-08
1.64255e-08
1.66712e-08
1.68435e-08
1.70514e-08
1.71969e-08
1.70369e-08
1.69983e-08
1.67011e-08
1.42362e-08
3.24764e-08
2.63529e-08
2.31766e-08
2.18077e-08
2.12114e-08
2.12574e-08
2.11971e-08
2.1293e-08
2.15096e-08
2.16883e-08
2.18398e-08
2.21091e-08
2.24669e-08
2.29114e-08
2.33035e-08
2.26444e-08
2.1847e-08
2.11676e-08
2.05953e-08
2.01111e-08
1.96758e-08
1.9306e-08
1.89991e-08
1.86495e-08
1.82343e-08
1.79035e-08
1.76437e-08
1.746e-08
1.73202e-08
1.71957e-08
1.71055e-08
1.70428e-08
1.7004e-08
1.69838e-08
1.69722e-08
1.69355e-08
1.69102e-08
1.69331e-08
1.69916e-08
1.70803e-08
1.71847e-08
1.73039e-08
1.74341e-08
1.7473e-08
1.7557e-08
1.75431e-08
1.72291e-08
1.70626e-08
1.64822e-08
1.37079e-08
1.96442e-08
3.08031e-08
3.04725e-08
2.9853e-08
2.90782e-08
2.89183e-08
2.85607e-08
2.82418e-08
2.8013e-08
2.77907e-08
2.76236e-08
2.75675e-08
2.76227e-08
2.7765e-08
2.79947e-08
2.8252e-08
2.70489e-08
2.5969e-08
2.50317e-08
2.42091e-08
2.34845e-08
2.2845e-08
2.22807e-08
2.17487e-08
2.11715e-08
2.06796e-08
2.02638e-08
1.99115e-08
1.96188e-08
1.93627e-08
1.91348e-08
1.89308e-08
1.87535e-08
1.85992e-08
1.84606e-08
1.83351e-08
1.822e-08
1.81384e-08
1.80925e-08
1.80865e-08
1.80825e-08
1.80839e-08
1.80767e-08
1.79637e-08
1.7929e-08
1.77342e-08
1.72786e-08
1.69598e-08
1.61027e-08
1.31143e-08
6.97592e-09
2.22992e-08
2.58001e-08
2.97844e-08
3.19995e-08
3.30523e-08
3.3579e-08
3.35707e-08
3.34271e-08
3.32607e-08
3.30404e-08
3.28448e-08
3.27076e-08
3.2628e-08
3.26286e-08
3.27325e-08
3.24781e-08
3.1031e-08
2.97406e-08
2.85796e-08
2.75164e-08
2.65657e-08
2.57135e-08
2.49356e-08
2.41684e-08
2.35004e-08
2.29188e-08
2.23907e-08
2.19308e-08
2.15135e-08
2.11285e-08
2.07782e-08
2.04513e-08
2.01551e-08
1.98665e-08
1.96024e-08
1.93606e-08
1.9182e-08
1.9037e-08
1.89167e-08
1.87853e-08
1.86424e-08
1.84844e-08
1.82373e-08
1.80697e-08
1.76937e-08
1.71097e-08
1.66595e-08
1.55587e-08
1.24849e-08
1.49138e-09
5.96498e-09
1.40981e-08
2.1185e-08
2.70809e-08
3.1155e-08
3.37241e-08
3.51541e-08
3.63082e-08
3.70517e-08
3.74463e-08
3.75754e-08
3.75873e-08
3.75558e-08
3.74967e-08
3.74211e-08
3.74375e-08
3.58622e-08
3.42217e-08
3.27078e-08
3.1314e-08
3.00441e-08
2.8876e-08
2.78067e-08
2.68937e-08
2.60725e-08
2.53304e-08
2.46381e-08
2.40088e-08
2.34241e-08
2.28846e-08
2.23803e-08
2.19123e-08
2.14752e-08
2.10739e-08
2.0681e-08
2.03106e-08
1.99436e-08
1.96583e-08
1.9417e-08
1.91633e-08
1.89055e-08
1.86116e-08
1.82453e-08
1.79545e-08
1.74046e-08
1.67381e-08
1.6154e-08
1.48715e-08
1.17519e-08
1.19294e-10
8.42634e-10
3.21869e-09
1.01466e-08
1.74251e-08
2.35052e-08
2.83265e-08
3.18041e-08
3.44662e-08
3.62591e-08
3.7946e-08
3.89605e-08
3.96391e-08
4.00838e-08
4.03668e-08
4.05732e-08
4.0719e-08
3.91741e-08
3.73945e-08
3.57097e-08
3.41292e-08
3.26597e-08
3.12863e-08
3.00114e-08
2.89666e-08
2.8055e-08
2.7194e-08
2.63884e-08
2.56345e-08
2.49164e-08
2.42409e-08
2.36237e-08
2.3018e-08
2.24549e-08
2.19064e-08
2.13859e-08
2.088e-08
2.04048e-08
1.99195e-08
1.95411e-08
1.91813e-08
1.88188e-08
1.84038e-08
1.79328e-08
1.75218e-08
1.6816e-08
1.6092e-08
1.54284e-08
1.41487e-08
1.09008e-08
5.50764e-11
2.33096e-10
6.26558e-10
2.00793e-09
5.84919e-09
1.26965e-08
1.89269e-08
2.37964e-08
2.79932e-08
3.12683e-08
3.37427e-08
3.55957e-08
3.7031e-08
3.80537e-08
3.89428e-08
4.01235e-08
4.03246e-08
3.91893e-08
3.78497e-08
3.64629e-08
3.50634e-08
3.36838e-08
3.23489e-08
3.10623e-08
2.9962e-08
2.90436e-08
2.81455e-08
2.72741e-08
2.64338e-08
2.56262e-08
2.48518e-08
2.41388e-08
2.34566e-08
2.28069e-08
2.21779e-08
2.15639e-08
2.09777e-08
2.04005e-08
1.98417e-08
1.92766e-08
1.87401e-08
1.82899e-08
1.7762e-08
1.72037e-08
1.6687e-08
1.58839e-08
1.51529e-08
1.4455e-08
1.31873e-08
9.90605e-09
2.62465e-11
1.03328e-10
2.15458e-10
4.59675e-10
1.12508e-09
2.81284e-09
6.1764e-09
1.10063e-08
1.63668e-08
2.13639e-08
2.55089e-08
2.85759e-08
3.10993e-08
3.27726e-08
3.37659e-08
3.4491e-08
3.46843e-08
3.44724e-08
3.40482e-08
3.34263e-08
3.26527e-08
3.17685e-08
3.08273e-08
2.98569e-08
2.89518e-08
2.81867e-08
2.74036e-08
2.66149e-08
2.58284e-08
2.50538e-08
2.42921e-08
2.35968e-08
2.29192e-08
2.22485e-08
2.15908e-08
2.09515e-08
2.03213e-08
1.96925e-08
1.90754e-08
1.84578e-08
1.78424e-08
1.72243e-08
1.65944e-08
1.59846e-08
1.53823e-08
1.45562e-08
1.38876e-08
1.32254e-08
1.19045e-08
8.76216e-09
1.46144e-11
5.5473e-11
1.10073e-10
1.88891e-10
3.31671e-10
6.12225e-10
1.20579e-09
2.3991e-09
4.45201e-09
7.34091e-09
1.06441e-08
1.39571e-08
1.69812e-08
1.9558e-08
2.16862e-08
2.3423e-08
2.4744e-08
2.5633e-08
2.62446e-08
2.65622e-08
2.66095e-08
2.64389e-08
2.61471e-08
2.57316e-08
2.52794e-08
2.48387e-08
2.43334e-08
2.37866e-08
2.32122e-08
2.26191e-08
2.20617e-08
2.15052e-08
2.09376e-08
2.03659e-08
1.97772e-08
1.91876e-08
1.85939e-08
1.80011e-08
1.73928e-08
1.67889e-08
1.61762e-08
1.5564e-08
1.49208e-08
1.42873e-08
1.36479e-08
1.28841e-08
1.23088e-08
1.15889e-08
1.02901e-08
7.4326e-09
9.2226e-12
3.36858e-11
6.49364e-11
1.05726e-10
1.59089e-10
2.35748e-10
3.55766e-10
5.62811e-10
9.33771e-10
1.58391e-09
2.61567e-09
4.00317e-09
5.64371e-09
7.50459e-09
9.39233e-09
1.12005e-08
1.28687e-08
1.43382e-08
1.56175e-08
1.66876e-08
1.7526e-08
1.81285e-08
1.85602e-08
1.88077e-08
1.89061e-08
1.88768e-08
1.87833e-08
1.86254e-08
1.84505e-08
1.82386e-08
1.79871e-08
1.76937e-08
1.73583e-08
1.69925e-08
1.65809e-08
1.61551e-08
1.56994e-08
1.52204e-08
1.47188e-08
1.41996e-08
1.36666e-08
1.31211e-08
1.25425e-08
1.19746e-08
1.13926e-08
1.07611e-08
1.02866e-08
9.5576e-09
8.47219e-09
6.03833e-09
6.22139e-12
2.19593e-11
4.12248e-11
6.45964e-11
9.33396e-11
1.29346e-10
1.73078e-10
2.33141e-10
3.17572e-10
4.4346e-10
6.3052e-10
8.96131e-10
1.2911e-09
1.84616e-09
2.56719e-09
3.43564e-09
4.4128e-09
5.45414e-09
6.51068e-09
7.53035e-09
8.4871e-09
9.35414e-09
1.01246e-08
1.07082e-08
1.11935e-08
1.15976e-08
1.19353e-08
1.21942e-08
1.23885e-08
1.25112e-08
1.25661e-08
1.25686e-08
1.25104e-08
1.23996e-08
1.22313e-08
1.20237e-08
1.17659e-08
1.14797e-08
1.11615e-08
1.08085e-08
1.04374e-08
1.00439e-08
9.6318e-09
9.21274e-09
8.80018e-09
8.35989e-09
7.9764e-09
7.35472e-09
6.52075e-09
4.62367e-09
4.33173e-12
1.49078e-11
2.75217e-11
4.23034e-11
5.95539e-11
7.98037e-11
1.03898e-10
1.32324e-10
1.65544e-10
2.07725e-10
2.53732e-10
3.09291e-10
3.84603e-10
4.88345e-10
6.33048e-10
8.3218e-10
1.1e-09
1.44702e-09
1.87145e-09
2.36309e-09
2.88778e-09
3.41317e-09
3.9398e-09
4.45304e-09
4.94221e-09
5.4013e-09
5.82315e-09
6.20667e-09
6.54945e-09
6.84734e-09
7.10348e-09
7.30701e-09
7.45646e-09
7.55354e-09
7.59951e-09
7.60002e-09
7.55184e-09
7.46702e-09
7.34423e-09
7.18909e-09
7.01514e-09
6.80839e-09
6.58778e-09
6.35222e-09
6.12479e-09
5.88224e-09
5.63737e-09
5.25208e-09
4.67114e-09
3.2811e-09
3.05068e-12
1.03242e-11
1.88596e-11
2.86937e-11
3.9903e-11
5.26266e-11
6.70846e-11
8.3601e-11
1.02632e-10
1.22777e-10
1.40086e-10
1.59639e-10
1.82198e-10
2.08882e-10
2.42043e-10
2.83054e-10
3.37842e-10
4.0796e-10
4.92384e-10
5.95881e-10
7.24951e-10
8.82503e-10
1.06696e-09
1.27718e-09
1.5098e-09
1.75869e-09
2.01831e-09
2.28631e-09
2.54848e-09
2.80499e-09
3.04808e-09
3.26861e-09
3.46596e-09
3.63466e-09
3.7737e-09
3.88145e-09
3.96268e-09
4.01725e-09
4.04289e-09
4.04292e-09
4.02559e-09
3.98457e-09
3.93536e-09
3.87166e-09
3.80176e-09
3.71529e-09
3.62647e-09
3.44316e-09
3.06311e-09
2.10324e-09
2.14266e-12
7.17981e-12
1.3041e-11
1.97469e-11
2.73233e-11
3.58102e-11
4.5269e-11
5.57875e-11
6.68711e-11
7.67555e-11
8.68993e-11
9.73236e-11
1.07602e-10
1.1813e-10
1.29605e-10
1.42217e-10
1.56251e-10
1.71268e-10
1.87098e-10
2.04998e-10
2.28507e-10
2.55729e-10
2.90769e-10
3.31956e-10
3.85113e-10
4.49345e-10
5.25065e-10
6.13449e-10
7.12539e-10
8.21212e-10
9.36612e-10
1.058e-09
1.1782e-09
1.29499e-09
1.41418e-09
1.5252e-09
1.62914e-09
1.72207e-09
1.8028e-09
1.87594e-09
1.93817e-09
1.98808e-09
2.03167e-09
2.06452e-09
2.09211e-09
2.10719e-09
2.11155e-09
2.03461e-09
1.78634e-09
1.17547e-09
1.48082e-12
4.94198e-12
8.96419e-12
1.35685e-11
1.87722e-11
2.45905e-11
3.10415e-11
3.73266e-11
4.3516e-11
4.97331e-11
5.59151e-11
6.20096e-11
6.7989e-11
7.38358e-11
7.95488e-11
8.50019e-11
8.96636e-11
9.28749e-11
9.57737e-11
9.83803e-11
1.00636e-10
1.03933e-10
1.07659e-10
1.11556e-10
1.16983e-10
1.25106e-10
1.34223e-10
1.4905e-10
1.6793e-10
1.97355e-10
2.29512e-10
2.70845e-10
3.14807e-10
3.66208e-10
4.1933e-10
4.77868e-10
5.36184e-10
6.02475e-10
6.67385e-10
7.32398e-10
7.99108e-10
8.61489e-10
9.21738e-10
9.78012e-10
1.02965e-09
1.07515e-09
1.10233e-09
1.05462e-09
9.08829e-10
5.48941e-10
9.8884e-13
3.30803e-12
6.02309e-12
9.15806e-12
1.26007e-11
1.62696e-11
2.01447e-11
2.41572e-11
2.82331e-11
3.23003e-11
3.62923e-11
4.01446e-11
4.38041e-11
4.72251e-11
5.03687e-11
5.29103e-11
5.41041e-11
5.46428e-11
5.44748e-11
5.36927e-11
5.2224e-11
5.00127e-11
4.7025e-11
4.32442e-11
3.87953e-11
4.09841e-11
4.40665e-11
4.74827e-11
5.14691e-11
5.81358e-11
6.65276e-11
7.65489e-11
9.06853e-11
1.06675e-10
1.26035e-10
1.48952e-10
1.73664e-10
2.03612e-10
2.35737e-10
2.68951e-10
3.06048e-10
3.44601e-10
3.83389e-10
4.24923e-10
4.64384e-10
4.95168e-10
4.99852e-10
4.69957e-10
3.8377e-10
1.99708e-10
5.91631e-13
1.99969e-12
3.65949e-12
5.5688e-12
7.70837e-12
1.00451e-11
1.25356e-11
1.51291e-11
1.77711e-11
2.04042e-11
2.29738e-11
2.5427e-11
2.77101e-11
2.97764e-11
3.12338e-11
3.19421e-11
3.21179e-11
3.1702e-11
3.06309e-11
2.88373e-11
2.62368e-11
2.27433e-11
1.82685e-11
1.80964e-11
1.7951e-11
1.76745e-11
1.73758e-11
1.71829e-11
1.72623e-11
1.83005e-11
2.05401e-11
2.37976e-11
2.81438e-11
3.42271e-11
4.20411e-11
5.11453e-11
6.15098e-11
7.40792e-11
8.81696e-11
1.03177e-10
1.18961e-10
1.34919e-10
1.50197e-10
1.65033e-10
1.84926e-10
1.95917e-10
1.96465e-10
1.75194e-10
1.24002e-10
6.01706e-11
2.92512e-13
1.03951e-12
1.96637e-12
3.06837e-12
4.32935e-12
5.72451e-12
7.2245e-12
8.79543e-12
1.03997e-11
1.19983e-11
1.35507e-11
1.50188e-11
1.61898e-11
1.69811e-11
1.74533e-11
1.75564e-11
1.72387e-11
1.64419e-11
1.51022e-11
1.31493e-11
1.05129e-11
9.57675e-12
9.01641e-12
8.2871e-12
7.40694e-12
6.41524e-12
5.43627e-12
4.68841e-12
4.10538e-12
3.87632e-12
4.22482e-12
5.24807e-12
6.95746e-12
9.55067e-12
1.30746e-11
1.7385e-11
2.24172e-11
2.80425e-11
3.40955e-11
4.03549e-11
4.65629e-11
5.20989e-11
5.63785e-11
5.85072e-11
6.47086e-11
6.85928e-11
6.41067e-11
5.1025e-11
3.21269e-11
1.50628e-11
8.66275e-14
3.81354e-13
8.15338e-13
1.35039e-12
1.97083e-12
2.66171e-12
3.41088e-12
4.20021e-12
4.9578e-12
5.6562e-12
6.28175e-12
6.80029e-12
7.17637e-12
7.37466e-12
7.35737e-12
7.08066e-12
6.49494e-12
5.55018e-12
4.75084e-12
4.53536e-12
4.19601e-12
3.74196e-12
3.13574e-12
2.4002e-12
1.55842e-12
5.98172e-13
1.11117e-13
1.17499e-13
1.27295e-13
1.4124e-13
1.6297e-13
2.09192e-13
2.60868e-13
3.17132e-13
1.98392e-12
4.13931e-12
6.63706e-12
9.36779e-12
1.20986e-11
1.45208e-11
1.66204e-11
1.80772e-11
1.88275e-11
1.81514e-11
1.66409e-11
1.69437e-11
1.41808e-11
1.00397e-11
5.72186e-12
2.56376e-12
3.00688e-15
5.54473e-14
1.24878e-13
1.84419e-13
2.37783e-13
2.7716e-13
2.99591e-13
3.47861e-13
4.12511e-13
4.72002e-13
5.21926e-13
5.57524e-13
5.74107e-13
5.68403e-13
5.38695e-13
4.74687e-13
3.66167e-13
2.06614e-13
2.42587e-14
2.4068e-14
2.3501e-14
2.25465e-14
2.12415e-14
1.97131e-14
1.81553e-14
1.68277e-14
1.60936e-14
1.62801e-14
1.7553e-14
2.00818e-14
2.40165e-14
2.9256e-14
3.55767e-14
4.27478e-14
5.04392e-14
5.81938e-14
6.54674e-14
7.16664e-14
7.60996e-14
7.81423e-14
7.7356e-14
6.503e-13
1.15087e-12
1.38025e-12
1.36874e-12
1.17381e-12
8.57e-13
5.5154e-13
2.89573e-13
1.66305e-13
)
;

boundaryField
{
    AXIS
    {
        type            empty;
    }
    OUTLET
    {
        type            calculated;
        value           nonuniform List<scalar> 
25
(
1.54933e-08
1.54249e-08
1.52739e-08
1.5027e-08
1.46825e-08
1.42362e-08
1.37079e-08
1.31143e-08
1.24849e-08
1.17519e-08
1.09008e-08
9.90605e-09
8.76216e-09
7.4326e-09
6.03833e-09
4.62367e-09
3.2811e-09
2.10324e-09
1.17547e-09
5.48941e-10
1.99708e-10
6.01706e-11
1.50628e-11
2.56376e-12
1.66305e-13
)
;
    }
    COFLOW
    {
        type            calculated;
        value           uniform 0;
    }
    PILOT
    {
        type            calculated;
        value           uniform 2.10503e-12;
    }
    FUEL
    {
        type            calculated;
        value           uniform 0;
    }
    WALL
    {
        type            calculated;
        value           nonuniform List<scalar> 
50
(
3.00688e-15
5.54473e-14
1.24878e-13
1.84419e-13
2.37783e-13
2.7716e-13
2.99591e-13
3.47861e-13
4.12511e-13
4.72002e-13
5.21926e-13
5.57524e-13
5.74107e-13
5.68403e-13
5.38695e-13
4.74687e-13
3.66167e-13
2.06614e-13
2.42587e-14
2.4068e-14
2.3501e-14
2.25465e-14
2.12415e-14
1.97131e-14
1.81553e-14
1.68277e-14
1.60936e-14
1.62801e-14
1.7553e-14
2.00818e-14
2.40165e-14
2.9256e-14
3.55767e-14
4.27478e-14
5.04392e-14
5.81938e-14
6.54674e-14
7.16664e-14
7.60996e-14
7.81423e-14
7.7356e-14
6.503e-13
1.15087e-12
1.38025e-12
1.36874e-12
1.17381e-12
8.57e-13
5.5154e-13
2.89573e-13
1.66305e-13
)
;
    }
    front
    {
        type            wedge;
    }
    back
    {
        type            wedge;
    }
}


// ************************************************************************* //
