/*--------------------------------*- C++ -*----------------------------------*\
| =========                 |                                                 |
| \\      /  F ield         | OpenFOAM: The Open Source CFD Toolbox           |
|  \\    /   O peration     | Version:  2.4.x                                 |
|   \\  /    A nd           | Web:      www.OpenFOAM.org                      |
|    \\/     M anipulation  |                                                 |
\*---------------------------------------------------------------------------*/
FoamFile
{
    version     2.0;
    format      ascii;
    class       volScalarField;
    location    "0.1";
    object      NH;
}
// * * * * * * * * * * * * * * * * * * * * * * * * * * * * * * * * * * * * * //

dimensions      [0 0 0 0 0 0 0];

internalField   nonuniform List<scalar> 
1250
(
2.81029e-11
1.09858e-10
2.15751e-10
3.52456e-10
5.42846e-10
8.02786e-10
1.14011e-09
1.55239e-09
2.01598e-09
2.4853e-09
2.96286e-09
3.38366e-09
3.81208e-09
4.23238e-09
4.6572e-09
5.07542e-09
5.40042e-09
5.60838e-09
5.82851e-09
6.06608e-09
6.33201e-09
6.59073e-09
6.82506e-09
6.93374e-09
7.05087e-09
7.17644e-09
7.32015e-09
7.46866e-09
7.6655e-09
7.91315e-09
8.19859e-09
8.50585e-09
8.77926e-09
8.96955e-09
9.21348e-09
9.51296e-09
9.84935e-09
1.02337e-08
1.06682e-08
1.11342e-08
1.1633e-08
1.21361e-08
1.26587e-08
1.31679e-08
1.36633e-08
1.41751e-08
1.44806e-08
1.46999e-08
1.48136e-08
1.32203e-08
3.19368e-11
1.24827e-10
2.41772e-10
3.98621e-10
6.22016e-10
9.24887e-10
1.31133e-09
1.76654e-09
2.23391e-09
2.72816e-09
3.21668e-09
3.64821e-09
4.0766e-09
4.5017e-09
4.92705e-09
5.33555e-09
5.64541e-09
5.84892e-09
6.06228e-09
6.30039e-09
6.5572e-09
6.78977e-09
7.03498e-09
7.16235e-09
7.29957e-09
7.41846e-09
7.5409e-09
7.68797e-09
7.88546e-09
8.13149e-09
8.41076e-09
8.71174e-09
9.00223e-09
9.18765e-09
9.42675e-09
9.71795e-09
1.00481e-08
1.04265e-08
1.08525e-08
1.13081e-08
1.17956e-08
1.2285e-08
1.27951e-08
1.32889e-08
1.37693e-08
1.42631e-08
1.45443e-08
1.47436e-08
1.48134e-08
1.31428e-08
4.36153e-11
1.68459e-10
3.23578e-10
5.5222e-10
8.83239e-10
1.30963e-09
1.79698e-09
2.29341e-09
2.81871e-09
3.36104e-09
3.86202e-09
4.29973e-09
4.72968e-09
5.15304e-09
5.5572e-09
5.94829e-09
6.2191e-09
6.4039e-09
6.60682e-09
6.83132e-09
7.04744e-09
7.26468e-09
7.5354e-09
7.68389e-09
7.83929e-09
7.94402e-09
8.03478e-09
8.17716e-09
8.37428e-09
8.61333e-09
8.8791e-09
9.16389e-09
9.47217e-09
9.66283e-09
9.89183e-09
1.01632e-08
1.04786e-08
1.08439e-08
1.12485e-08
1.16819e-08
1.21456e-08
1.26044e-08
1.30876e-08
1.35477e-08
1.39966e-08
1.44481e-08
1.46619e-08
1.48063e-08
1.47772e-08
1.29734e-08
7.75797e-11
2.88291e-10
5.89634e-10
1.06338e-09
1.64388e-09
2.22983e-09
2.83274e-09
3.44081e-09
4.0249e-09
4.60004e-09
5.07828e-09
5.49285e-09
5.88646e-09
6.26519e-09
6.62698e-09
6.97332e-09
7.17047e-09
7.32133e-09
7.49062e-09
7.65168e-09
7.83994e-09
8.07926e-09
8.37179e-09
8.51741e-09
8.60948e-09
8.72792e-09
8.80983e-09
8.94934e-09
9.13613e-09
9.35255e-09
9.58931e-09
9.85148e-09
1.01389e-08
1.03801e-08
1.05785e-08
1.0823e-08
1.11152e-08
1.1452e-08
1.18235e-08
1.22238e-08
1.26444e-08
1.30597e-08
1.35006e-08
1.39042e-08
1.42992e-08
1.4677e-08
1.48142e-08
1.48818e-08
1.47152e-08
1.27065e-08
2.28638e-10
8.80145e-10
1.83693e-09
2.80857e-09
3.69525e-09
4.48352e-09
5.13618e-09
5.76086e-09
6.29899e-09
6.80119e-09
7.13353e-09
7.43286e-09
7.71315e-09
7.97969e-09
8.23962e-09
8.4996e-09
8.57794e-09
8.64399e-09
8.7377e-09
8.87438e-09
9.06199e-09
9.28958e-09
9.52386e-09
9.57505e-09
9.61597e-09
9.72831e-09
9.89922e-09
1.00169e-08
1.0162e-08
1.03346e-08
1.05372e-08
1.07682e-08
1.10282e-08
1.1293e-08
1.14599e-08
1.16679e-08
1.19201e-08
1.22144e-08
1.25417e-08
1.28912e-08
1.32514e-08
1.36131e-08
1.39962e-08
1.43223e-08
1.46449e-08
1.49255e-08
1.4941e-08
1.4934e-08
1.45802e-08
1.23476e-08
5.01271e-09
6.14128e-09
6.10477e-09
6.38504e-09
6.75909e-09
7.16973e-09
7.59315e-09
8.06629e-09
8.55122e-09
9.02788e-09
9.39989e-09
9.82178e-09
1.0285e-08
1.04115e-08
1.04951e-08
1.05868e-08
1.04999e-08
1.0474e-08
1.05034e-08
1.05752e-08
1.06512e-08
1.07504e-08
1.08761e-08
1.09223e-08
1.09603e-08
1.10581e-08
1.11922e-08
1.13376e-08
1.14275e-08
1.15533e-08
1.1718e-08
1.18962e-08
1.20891e-08
1.22949e-08
1.24833e-08
1.2638e-08
1.28404e-08
1.30817e-08
1.33423e-08
1.36236e-08
1.39172e-08
1.42125e-08
1.45153e-08
1.47408e-08
1.49738e-08
1.51292e-08
1.50248e-08
1.49141e-08
1.43461e-08
1.19016e-08
1.93936e-08
1.32782e-08
1.12217e-08
1.05509e-08
1.03664e-08
1.05249e-08
1.07016e-08
1.0961e-08
1.12828e-08
1.15801e-08
1.18583e-08
1.21934e-08
1.25717e-08
1.29929e-08
1.33842e-08
1.3211e-08
1.29664e-08
1.27813e-08
1.26509e-08
1.25678e-08
1.25368e-08
1.25521e-08
1.26132e-08
1.26216e-08
1.25836e-08
1.26047e-08
1.26792e-08
1.28081e-08
1.29271e-08
1.29827e-08
1.30618e-08
1.3162e-08
1.32771e-08
1.34016e-08
1.35342e-08
1.36582e-08
1.37961e-08
1.3963e-08
1.41526e-08
1.4367e-08
1.4582e-08
1.47897e-08
1.49863e-08
1.50949e-08
1.52192e-08
1.52428e-08
1.50079e-08
1.47931e-08
1.4004e-08
1.13935e-08
1.41615e-08
1.58009e-08
1.43776e-08
1.39279e-08
1.36752e-08
1.38014e-08
1.39135e-08
1.40583e-08
1.42452e-08
1.4435e-08
1.46404e-08
1.48876e-08
1.51802e-08
1.55073e-08
1.58736e-08
1.62496e-08
1.58248e-08
1.54555e-08
1.5163e-08
1.49333e-08
1.47581e-08
1.46321e-08
1.45506e-08
1.44792e-08
1.43789e-08
1.43288e-08
1.43319e-08
1.43787e-08
1.44678e-08
1.44965e-08
1.44827e-08
1.44849e-08
1.45057e-08
1.45425e-08
1.45826e-08
1.46237e-08
1.46857e-08
1.47839e-08
1.48999e-08
1.50311e-08
1.51483e-08
1.52528e-08
1.53307e-08
1.53157e-08
1.53433e-08
1.52096e-08
1.48637e-08
1.45212e-08
1.35374e-08
1.08348e-08
5.47095e-09
1.25339e-08
1.27487e-08
1.41001e-08
1.50709e-08
1.56799e-08
1.61785e-08
1.64887e-08
1.67532e-08
1.70278e-08
1.72655e-08
1.75021e-08
1.77531e-08
1.80177e-08
1.83088e-08
1.86439e-08
1.87699e-08
1.82346e-08
1.77775e-08
1.73844e-08
1.70451e-08
1.67642e-08
1.65342e-08
1.6345e-08
1.61745e-08
1.60568e-08
1.59885e-08
1.5948e-08
1.59465e-08
1.59671e-08
1.58623e-08
1.57663e-08
1.56826e-08
1.56139e-08
1.55461e-08
1.54907e-08
1.54449e-08
1.54572e-08
1.54879e-08
1.55211e-08
1.55301e-08
1.55198e-08
1.548e-08
1.53513e-08
1.5262e-08
1.49848e-08
1.45324e-08
1.40945e-08
1.2954e-08
1.02326e-08
1.26364e-09
4.0409e-09
7.79447e-09
1.07839e-08
1.33067e-08
1.5172e-08
1.64802e-08
1.73856e-08
1.82169e-08
1.89237e-08
1.94742e-08
1.99049e-08
2.02117e-08
2.04827e-08
2.07382e-08
2.10276e-08
2.13557e-08
2.08215e-08
2.02335e-08
1.96948e-08
1.92054e-08
1.87698e-08
1.83789e-08
1.80343e-08
1.77931e-08
1.76026e-08
1.74532e-08
1.73339e-08
1.72464e-08
1.71765e-08
1.7059e-08
1.68571e-08
1.66752e-08
1.65073e-08
1.63568e-08
1.6199e-08
1.60475e-08
1.58839e-08
1.5802e-08
1.57458e-08
1.56635e-08
1.55517e-08
1.53963e-08
1.51715e-08
1.49773e-08
1.45659e-08
1.40533e-08
1.3517e-08
1.22843e-08
9.56086e-09
1.17337e-10
7.2269e-10
2.23744e-09
5.85837e-09
9.3512e-09
1.21719e-08
1.44498e-08
1.62085e-08
1.76476e-08
1.87805e-08
1.989e-08
2.07228e-08
2.13978e-08
2.19635e-08
2.24333e-08
2.28822e-08
2.32783e-08
2.27395e-08
2.20656e-08
2.14295e-08
2.08364e-08
2.02918e-08
1.97886e-08
1.933e-08
1.90197e-08
1.87928e-08
1.85862e-08
1.8404e-08
1.8245e-08
1.80962e-08
1.79564e-08
1.76713e-08
1.73811e-08
1.71131e-08
1.68526e-08
1.66057e-08
1.63579e-08
1.61221e-08
1.58583e-08
1.56777e-08
1.55053e-08
1.53054e-08
1.50508e-08
1.47421e-08
1.44546e-08
1.39254e-08
1.33698e-08
1.27842e-08
1.15995e-08
8.82802e-09
5.58935e-11
2.28651e-10
5.4044e-10
1.48848e-09
3.68705e-09
7.29222e-09
1.043e-08
1.28702e-08
1.50033e-08
1.67615e-08
1.81549e-08
1.93181e-08
2.02843e-08
2.10676e-08
2.18182e-08
2.27504e-08
2.31566e-08
2.28283e-08
2.23793e-08
2.18966e-08
2.13954e-08
2.08966e-08
2.04124e-08
1.99455e-08
1.95954e-08
1.93621e-08
1.91302e-08
1.89039e-08
1.86857e-08
1.84777e-08
1.82806e-08
1.79478e-08
1.76018e-08
1.72697e-08
1.6943e-08
1.66184e-08
1.63032e-08
1.59775e-08
1.56551e-08
1.53206e-08
1.49976e-08
1.47267e-08
1.43816e-08
1.40003e-08
1.36293e-08
1.30325e-08
1.24761e-08
1.18796e-08
1.07297e-08
7.99116e-09
2.69269e-11
1.05049e-10
2.10868e-10
4.13622e-10
9.02194e-10
2.04674e-09
3.98091e-09
6.60834e-09
9.48096e-09
1.21749e-08
1.44284e-08
1.61431e-08
1.7605e-08
1.86356e-08
1.93501e-08
1.99339e-08
2.02522e-08
2.03787e-08
2.03914e-08
2.02912e-08
2.01046e-08
1.98561e-08
1.95728e-08
1.92684e-08
1.90045e-08
1.88324e-08
1.86434e-08
1.84434e-08
1.82359e-08
1.80268e-08
1.78084e-08
1.74541e-08
1.71036e-08
1.67479e-08
1.63906e-08
1.60367e-08
1.56788e-08
1.53106e-08
1.49401e-08
1.4556e-08
1.41638e-08
1.37565e-08
1.33301e-08
1.29052e-08
1.24697e-08
1.18639e-08
1.13593e-08
1.07842e-08
9.61213e-09
7.03983e-09
1.50668e-11
5.69772e-11
1.11782e-10
1.8705e-10
3.13518e-10
5.38246e-10
9.72695e-10
1.79654e-09
3.13134e-09
4.81043e-09
6.69168e-09
8.57155e-09
1.02987e-08
1.17862e-08
1.30596e-08
1.41408e-08
1.50106e-08
1.56782e-08
1.61874e-08
1.6543e-08
1.67757e-08
1.68934e-08
1.69305e-08
1.68962e-08
1.68368e-08
1.67942e-08
1.67221e-08
1.66256e-08
1.65085e-08
1.63745e-08
1.61382e-08
1.58624e-08
1.55717e-08
1.52709e-08
1.49484e-08
1.46168e-08
1.42727e-08
1.39191e-08
1.35462e-08
1.31657e-08
1.27689e-08
1.23605e-08
1.19184e-08
1.14686e-08
1.1002e-08
1.04359e-08
9.98872e-09
9.38345e-09
8.28847e-09
5.96227e-09
9.52463e-12
3.47176e-11
6.66385e-11
1.07578e-10
1.59535e-10
2.30887e-10
3.35923e-10
5.04744e-10
7.87822e-10
1.2593e-09
1.98193e-09
2.92835e-09
4.026e-09
5.16174e-09
6.31241e-09
7.42317e-09
8.46326e-09
9.40531e-09
1.02492e-08
1.09932e-08
1.16193e-08
1.2108e-08
1.25166e-08
1.2819e-08
1.30326e-08
1.3183e-08
1.32978e-08
1.33773e-08
1.33614e-08
1.32953e-08
1.32029e-08
1.30833e-08
1.29312e-08
1.27516e-08
1.25317e-08
1.22959e-08
1.20304e-08
1.17401e-08
1.14274e-08
1.10936e-08
1.07419e-08
1.03736e-08
9.9769e-09
9.57857e-09
9.16231e-09
8.69879e-09
8.32785e-09
7.72884e-09
6.80926e-09
4.8588e-09
6.42561e-12
2.26492e-11
4.24241e-11
6.62272e-11
9.51493e-11
1.30759e-10
1.7292e-10
2.29038e-10
3.04743e-10
4.12387e-10
5.63922e-10
7.67512e-10
1.06098e-09
1.46305e-09
1.9762e-09
2.58714e-09
3.26998e-09
3.99593e-09
4.73413e-09
5.45013e-09
6.12804e-09
6.7505e-09
7.31231e-09
7.74264e-09
8.10937e-09
8.42301e-09
8.695e-09
8.92827e-09
9.11611e-09
9.25647e-09
9.34941e-09
9.40556e-09
9.41878e-09
9.39299e-09
9.32298e-09
9.22135e-09
9.07887e-09
8.91203e-09
8.71717e-09
8.49103e-09
8.2467e-09
7.97925e-09
7.69216e-09
7.39305e-09
7.09016e-09
6.75736e-09
6.45468e-09
5.94955e-09
5.26638e-09
3.74899e-09
4.46972e-12
1.53678e-11
2.83305e-11
4.34559e-11
6.09995e-11
8.14272e-11
1.05484e-10
1.33496e-10
1.65677e-10
2.05738e-10
2.479e-10
2.96921e-10
3.61216e-10
4.46984e-10
5.63483e-10
7.20057e-10
9.26616e-10
1.18979e-09
1.50742e-09
1.87209e-09
2.25756e-09
2.64108e-09
3.02513e-09
3.40092e-09
3.75998e-09
4.10046e-09
4.41779e-09
4.71073e-09
4.97697e-09
5.21514e-09
5.42607e-09
5.60066e-09
5.73974e-09
5.84071e-09
5.90245e-09
5.92967e-09
5.92014e-09
5.8824e-09
5.81473e-09
5.72115e-09
5.61141e-09
5.474e-09
5.32328e-09
5.15785e-09
4.99128e-09
4.80374e-09
4.60871e-09
4.29159e-09
3.80914e-09
2.69981e-09
3.14302e-12
1.06293e-11
1.93977e-11
2.94721e-11
4.09125e-11
5.38375e-11
6.84417e-11
8.50158e-11
1.03969e-10
1.23817e-10
1.4052e-10
1.59084e-10
1.80114e-10
2.04505e-10
2.34287e-10
2.70321e-10
3.17758e-10
3.77288e-10
4.47744e-10
5.32626e-10
6.36959e-10
7.62648e-10
9.07877e-10
1.07188e-09
1.25254e-09
1.44461e-09
1.64439e-09
1.85198e-09
2.0558e-09
2.25743e-09
2.44973e-09
2.6249e-09
2.78192e-09
2.91954e-09
3.03668e-09
3.13054e-09
3.20526e-09
3.25919e-09
3.2909e-09
3.30239e-09
3.29971e-09
3.27743e-09
3.2473e-09
3.20477e-09
3.15412e-09
3.08665e-09
3.01329e-09
2.85881e-09
2.54279e-09
1.77124e-09
2.20334e-12
7.37939e-12
1.33937e-11
2.02612e-11
2.80001e-11
3.66413e-11
4.62364e-11
5.68615e-11
6.79978e-11
7.78348e-11
8.78423e-11
9.80213e-11
1.0793e-10
1.1794e-10
1.2871e-10
1.40382e-10
1.5318e-10
1.66909e-10
1.81255e-10
1.97206e-10
2.18039e-10
2.41744e-10
2.72058e-10
3.07157e-10
3.52295e-10
4.06395e-10
4.69684e-10
5.43091e-10
6.2479e-10
7.1428e-10
8.09345e-10
9.09352e-10
1.008e-09
1.10363e-09
1.20288e-09
1.2959e-09
1.38356e-09
1.46245e-09
1.53142e-09
1.59476e-09
1.64913e-09
1.69323e-09
1.73179e-09
1.7609e-09
1.7847e-09
1.79739e-09
1.79894e-09
1.73155e-09
1.52398e-09
1.02582e-09
1.51952e-12
5.06927e-12
9.19003e-12
1.39e-11
1.92127e-11
2.51387e-11
3.1691e-11
3.80478e-11
4.42759e-11
5.04954e-11
5.66365e-11
6.26401e-11
6.84711e-11
7.41053e-11
7.95333e-11
8.46284e-11
8.896e-11
9.19707e-11
9.46265e-11
9.69411e-11
9.88487e-11
1.01704e-10
1.04876e-10
1.08091e-10
1.12653e-10
1.19617e-10
1.27327e-10
1.40228e-10
1.56777e-10
1.8327e-10
2.11991e-10
2.48929e-10
2.87899e-10
3.33287e-10
3.79829e-10
4.3088e-10
4.81379e-10
5.39022e-10
5.9511e-10
6.51058e-10
7.08238e-10
7.62285e-10
8.14498e-10
8.63155e-10
9.0781e-10
9.46775e-10
9.69816e-10
9.29325e-10
8.07195e-10
5.02124e-10
1.01237e-12
3.38583e-12
6.1621e-12
9.36383e-12
1.28738e-11
1.66062e-11
2.05373e-11
2.45939e-11
2.86971e-11
3.27702e-11
3.67422e-11
4.05444e-11
4.41199e-11
4.74189e-11
5.03992e-11
5.27765e-11
5.39104e-11
5.43816e-11
5.41383e-11
5.32735e-11
5.17075e-11
4.93833e-11
4.62654e-11
4.2335e-11
3.77164e-11
3.98092e-11
4.27605e-11
4.60228e-11
4.98112e-11
5.61538e-11
6.41096e-11
7.35571e-11
8.68528e-11
1.01784e-10
1.19766e-10
1.40933e-10
1.63572e-10
1.90933e-10
2.2005e-10
2.49883e-10
2.8299e-10
3.17047e-10
3.50927e-10
3.88538e-10
4.24534e-10
4.52635e-10
4.57883e-10
4.33004e-10
3.58015e-10
1.9209e-10
6.04193e-13
2.04168e-12
3.73482e-12
5.68015e-12
7.85651e-12
1.02284e-11
1.27496e-11
1.53664e-11
1.80212e-11
2.06532e-11
2.3205e-11
2.56206e-11
2.78436e-11
2.98247e-11
3.12203e-11
3.1903e-11
3.20487e-11
3.15982e-11
3.04877e-11
2.86495e-11
2.59988e-11
2.24489e-11
1.79107e-11
1.77377e-11
1.76004e-11
1.73376e-11
1.7056e-11
1.6879e-11
1.69677e-11
1.79933e-11
2.01877e-11
2.33603e-11
2.75699e-11
3.34426e-11
4.09535e-11
4.96543e-11
5.95005e-11
7.13896e-11
8.46352e-11
9.86406e-11
1.13261e-10
1.27917e-10
1.41823e-10
1.55406e-10
1.74746e-10
1.8592e-10
1.87622e-10
1.68767e-10
1.21039e-10
5.9578e-11
2.97791e-13
1.05799e-12
2.00035e-12
3.11923e-12
4.39714e-12
5.80771e-12
7.3198e-12
8.89764e-12
1.05017e-11
1.20908e-11
1.36225e-11
1.50565e-11
1.62033e-11
1.69843e-11
1.74433e-11
1.75304e-11
1.71932e-11
1.63733e-11
1.50063e-11
1.30215e-11
1.0348e-11
9.41349e-12
8.86929e-12
8.1604e-12
7.30472e-12
6.3409e-12
5.39075e-12
4.67324e-12
4.11958e-12
3.91377e-12
4.27267e-12
5.28881e-12
6.9703e-12
9.51325e-12
1.29562e-11
1.71477e-11
2.20204e-11
2.74454e-11
3.32598e-11
3.92481e-11
4.5163e-11
5.04163e-11
5.44596e-11
5.64519e-11
6.2776e-11
6.70121e-11
6.30255e-11
5.04672e-11
3.19428e-11
1.50249e-11
8.77873e-14
3.86284e-13
8.25025e-13
1.36463e-12
1.98853e-12
2.68081e-12
3.4284e-12
4.21216e-12
4.9664e-12
5.66315e-12
6.2858e-12
6.8e-12
7.17013e-12
7.36071e-12
7.33381e-12
7.04529e-12
6.4452e-12
5.48321e-12
4.67405e-12
4.46508e-12
4.13513e-12
3.69305e-12
3.10223e-12
2.38512e-12
1.56445e-12
6.2848e-13
1.54684e-13
1.63535e-13
1.77118e-13
1.96441e-13
2.26109e-13
2.86683e-13
3.54452e-13
4.28227e-13
2.06599e-12
4.17527e-12
6.61251e-12
9.27057e-12
1.19236e-11
1.42731e-11
1.63052e-11
1.77115e-11
1.84312e-11
1.77678e-11
1.63094e-11
1.67216e-11
1.40553e-11
9.9798e-12
5.69727e-12
2.55527e-12
3.0251e-15
5.55888e-14
1.25008e-13
1.84154e-13
2.3675e-13
2.74911e-13
2.95637e-13
3.42655e-13
4.06487e-13
4.65321e-13
5.1484e-13
5.50383e-13
5.67354e-13
5.62545e-13
5.34257e-13
4.72411e-13
3.67001e-13
2.11628e-13
3.38046e-14
3.35409e-14
3.2753e-14
3.14253e-14
2.96086e-14
2.74801e-14
2.53098e-14
2.34595e-14
2.24357e-14
2.26941e-14
2.44652e-14
2.79845e-14
3.34593e-14
4.07465e-14
4.95331e-14
5.94958e-14
7.01748e-14
8.09347e-14
9.10214e-14
9.96141e-14
1.05758e-13
1.08592e-13
1.07509e-13
6.64093e-13
1.14914e-12
1.36917e-12
1.35386e-12
1.15941e-12
8.46009e-13
5.44351e-13
2.85955e-13
1.63898e-13
)
;

boundaryField
{
    AXIS
    {
        type            empty;
    }
    OUTLET
    {
        type            calculated;
        value           nonuniform List<scalar> 
25
(
1.32203e-08
1.31428e-08
1.29734e-08
1.27065e-08
1.23476e-08
1.19016e-08
1.13935e-08
1.08348e-08
1.02326e-08
9.56086e-09
8.82802e-09
7.99116e-09
7.03983e-09
5.96227e-09
4.8588e-09
3.74899e-09
2.69981e-09
1.77124e-09
1.02582e-09
5.02124e-10
1.9209e-10
5.9578e-11
1.50249e-11
2.55527e-12
1.63898e-13
)
;
    }
    COFLOW
    {
        type            calculated;
        value           uniform 0;
    }
    PILOT
    {
        type            calculated;
        value           uniform 2.97099e-10;
    }
    FUEL
    {
        type            calculated;
        value           uniform 0;
    }
    WALL
    {
        type            calculated;
        value           nonuniform List<scalar> 
50
(
3.0251e-15
5.55888e-14
1.25008e-13
1.84154e-13
2.3675e-13
2.74911e-13
2.95637e-13
3.42655e-13
4.06487e-13
4.65321e-13
5.1484e-13
5.50383e-13
5.67354e-13
5.62545e-13
5.34257e-13
4.72411e-13
3.67001e-13
2.11628e-13
3.38046e-14
3.35409e-14
3.2753e-14
3.14253e-14
2.96086e-14
2.74801e-14
2.53098e-14
2.34595e-14
2.24357e-14
2.26941e-14
2.44652e-14
2.79845e-14
3.34593e-14
4.07465e-14
4.95331e-14
5.94958e-14
7.01748e-14
8.09347e-14
9.10214e-14
9.96141e-14
1.05758e-13
1.08592e-13
1.07509e-13
6.64093e-13
1.14914e-12
1.36917e-12
1.35386e-12
1.15941e-12
8.46009e-13
5.44351e-13
2.85955e-13
1.63898e-13
)
;
    }
    front
    {
        type            wedge;
    }
    back
    {
        type            wedge;
    }
}


// ************************************************************************* //
