/*--------------------------------*- C++ -*----------------------------------*\
| =========                 |                                                 |
| \\      /  F ield         | OpenFOAM: The Open Source CFD Toolbox           |
|  \\    /   O peration     | Version:  2.4.x                                 |
|   \\  /    A nd           | Web:      www.OpenFOAM.org                      |
|    \\/     M anipulation  |                                                 |
\*---------------------------------------------------------------------------*/
FoamFile
{
    version     2.0;
    format      ascii;
    class       volScalarField;
    location    "0.1";
    object      NH2;
}
// * * * * * * * * * * * * * * * * * * * * * * * * * * * * * * * * * * * * * //

dimensions      [0 0 0 0 0 0 0];

internalField   nonuniform List<scalar> 
1250
(
4.68943e-10
1.78635e-09
3.32342e-09
5.02587e-09
7.03918e-09
9.4501e-09
1.2317e-08
1.5637e-08
1.92514e-08
2.26044e-08
2.60128e-08
2.9197e-08
3.2589e-08
3.61519e-08
3.98786e-08
4.38063e-08
4.73712e-08
5.03992e-08
5.3735e-08
5.73743e-08
6.13096e-08
6.55406e-08
7.00978e-08
7.36688e-08
7.69609e-08
8.01677e-08
8.37246e-08
8.75751e-08
9.18456e-08
9.64882e-08
1.01421e-07
1.06535e-07
1.11442e-07
1.15883e-07
1.20831e-07
1.26127e-07
1.3166e-07
1.37524e-07
1.43602e-07
1.49689e-07
1.55566e-07
1.61208e-07
1.6652e-07
1.7102e-07
1.75042e-07
1.78278e-07
1.78678e-07
1.77137e-07
1.69256e-07
1.35316e-07
5.36022e-10
2.0237e-09
3.66933e-09
5.51774e-09
7.73568e-09
1.03942e-08
1.35351e-08
1.70913e-08
2.04092e-08
2.38554e-08
2.72999e-08
3.05353e-08
3.39577e-08
3.75457e-08
4.13053e-08
4.52412e-08
4.8757e-08
5.18111e-08
5.51678e-08
5.8823e-08
6.27794e-08
6.70247e-08
7.16492e-08
7.53344e-08
7.88832e-08
8.20681e-08
8.55562e-08
8.94064e-08
9.36677e-08
9.82803e-08
1.03154e-07
1.08205e-07
1.13198e-07
1.17597e-07
1.22463e-07
1.27661e-07
1.33117e-07
1.38889e-07
1.44838e-07
1.50755e-07
1.56477e-07
1.61925e-07
1.67073e-07
1.71362e-07
1.75208e-07
1.78224e-07
1.78412e-07
1.7667e-07
1.68413e-07
1.3417e-07
7.42282e-10
2.69928e-09
4.67501e-09
6.99117e-09
9.8306e-09
1.31578e-08
1.66694e-08
1.98949e-08
2.33301e-08
2.69427e-08
3.04263e-08
3.37294e-08
3.72005e-08
4.08228e-08
4.46078e-08
4.85407e-08
5.19363e-08
5.50266e-08
5.84152e-08
6.21042e-08
6.60896e-08
7.0415e-08
7.51874e-08
7.89768e-08
8.28603e-08
8.6223e-08
8.96154e-08
9.34478e-08
9.76782e-08
1.02207e-07
1.06957e-07
1.11858e-07
1.16886e-07
1.2129e-07
1.25971e-07
1.30939e-07
1.36227e-07
1.4179e-07
1.47444e-07
1.52985e-07
1.5842e-07
1.63452e-07
1.68247e-07
1.72083e-07
1.75558e-07
1.78058e-07
1.77593e-07
1.75335e-07
1.66221e-07
1.31681e-07
1.35009e-09
4.38866e-09
7.34231e-09
1.09959e-08
1.48672e-08
1.81717e-08
2.15928e-08
2.51221e-08
2.87448e-08
3.24815e-08
3.5905e-08
3.92019e-08
4.26484e-08
4.6249e-08
4.99866e-08
5.3845e-08
5.70473e-08
6.01474e-08
6.35643e-08
6.72726e-08
7.13425e-08
7.58433e-08
8.06285e-08
8.44446e-08
8.82289e-08
9.2459e-08
9.58406e-08
9.96242e-08
1.03727e-07
1.08074e-07
1.12584e-07
1.17242e-07
1.22048e-07
1.26548e-07
1.30909e-07
1.35618e-07
1.40627e-07
1.45817e-07
1.50982e-07
1.56069e-07
1.60964e-07
1.65441e-07
1.69634e-07
1.72793e-07
1.75618e-07
1.77282e-07
1.76182e-07
1.73247e-07
1.62989e-07
1.27935e-07
3.94152e-09
1.04986e-08
1.58934e-08
1.98881e-08
2.36631e-08
2.72562e-08
3.07048e-08
3.42672e-08
3.77937e-08
4.13773e-08
4.44305e-08
4.75394e-08
5.07668e-08
5.41234e-08
5.76619e-08
6.13913e-08
6.43074e-08
6.73848e-08
7.08019e-08
7.46081e-08
7.87358e-08
8.31351e-08
8.76975e-08
9.14035e-08
9.52081e-08
9.95788e-08
1.04218e-07
1.07806e-07
1.11617e-07
1.15626e-07
1.19828e-07
1.24179e-07
1.28568e-07
1.32857e-07
1.36921e-07
1.41282e-07
1.45838e-07
1.50451e-07
1.55035e-07
1.59523e-07
1.63681e-07
1.67483e-07
1.70893e-07
1.73199e-07
1.75193e-07
1.75848e-07
1.73697e-07
1.70227e-07
1.58504e-07
1.23126e-07
4.66553e-08
3.62013e-08
3.24758e-08
3.28544e-08
3.45806e-08
3.69292e-08
3.98496e-08
4.32326e-08
4.68146e-08
5.04641e-08
5.38499e-08
5.75702e-08
6.15759e-08
6.47378e-08
6.79105e-08
7.12247e-08
7.38722e-08
7.68957e-08
8.02748e-08
8.39558e-08
8.77966e-08
9.18215e-08
9.60558e-08
9.99667e-08
1.0393e-07
1.08323e-07
1.13013e-07
1.17576e-07
1.21001e-07
1.24648e-07
1.28376e-07
1.32122e-07
1.35892e-07
1.39661e-07
1.43386e-07
1.47248e-07
1.51167e-07
1.55173e-07
1.59017e-07
1.62711e-07
1.66069e-07
1.69032e-07
1.71503e-07
1.72746e-07
1.73827e-07
1.73282e-07
1.70197e-07
1.6588e-07
1.52755e-07
1.17476e-07
1.21744e-07
6.09591e-08
4.72672e-08
4.43984e-08
4.47004e-08
4.68042e-08
4.96954e-08
5.30261e-08
5.66696e-08
6.02884e-08
6.39453e-08
6.7847e-08
7.19311e-08
7.61983e-08
8.04357e-08
8.30648e-08
8.55409e-08
8.83151e-08
9.13679e-08
9.46729e-08
9.82035e-08
1.01995e-07
1.06044e-07
1.09899e-07
1.13707e-07
1.17903e-07
1.22424e-07
1.27212e-07
1.3141e-07
1.34401e-07
1.37461e-07
1.40568e-07
1.43667e-07
1.46706e-07
1.49574e-07
1.52628e-07
1.55929e-07
1.59162e-07
1.62264e-07
1.65171e-07
1.67616e-07
1.69566e-07
1.70893e-07
1.71071e-07
1.71112e-07
1.69391e-07
1.653e-07
1.60286e-07
1.45965e-07
1.1131e-07
1.09325e-07
7.34908e-08
5.621e-08
5.30826e-08
5.33098e-08
5.59092e-08
5.9268e-08
6.29257e-08
6.67656e-08
7.07565e-08
7.47973e-08
7.8924e-08
8.31515e-08
8.74246e-08
9.17826e-08
9.62746e-08
9.84751e-08
1.00877e-07
1.03578e-07
1.06513e-07
1.09658e-07
1.12987e-07
1.16484e-07
1.20045e-07
1.23752e-07
1.27697e-07
1.3191e-07
1.36321e-07
1.40882e-07
1.4413e-07
1.46408e-07
1.48678e-07
1.50952e-07
1.53188e-07
1.55197e-07
1.57038e-07
1.59373e-07
1.61904e-07
1.64157e-07
1.6611e-07
1.6751e-07
1.68449e-07
1.68697e-07
1.67796e-07
1.66961e-07
1.63865e-07
1.59124e-07
1.53224e-07
1.38255e-07
1.0466e-07
4.47809e-08
6.61609e-08
5.46707e-08
5.52105e-08
5.84408e-08
6.20382e-08
6.65619e-08
7.10058e-08
7.54768e-08
8.02931e-08
8.49056e-08
8.9411e-08
9.38559e-08
9.82149e-08
1.02552e-07
1.07238e-07
1.11365e-07
1.13421e-07
1.15707e-07
1.18163e-07
1.20744e-07
1.23492e-07
1.26391e-07
1.29409e-07
1.33029e-07
1.36744e-07
1.40619e-07
1.44506e-07
1.48511e-07
1.52495e-07
1.54184e-07
1.55646e-07
1.56998e-07
1.58304e-07
1.59421e-07
1.6042e-07
1.61277e-07
1.6271e-07
1.64051e-07
1.65052e-07
1.65488e-07
1.65371e-07
1.64555e-07
1.62694e-07
1.60829e-07
1.56715e-07
1.51322e-07
1.44987e-07
1.29883e-07
9.72992e-08
1.08035e-08
3.02751e-08
4.03011e-08
4.87529e-08
5.62985e-08
6.31607e-08
6.93211e-08
7.52261e-08
8.14503e-08
8.79527e-08
9.39571e-08
9.9549e-08
1.04529e-07
1.09257e-07
1.13719e-07
1.18383e-07
1.23166e-07
1.25233e-07
1.27081e-07
1.28986e-07
1.30966e-07
1.33032e-07
1.35141e-07
1.37303e-07
1.40462e-07
1.43858e-07
1.47319e-07
1.50711e-07
1.54128e-07
1.57471e-07
1.59715e-07
1.6032e-07
1.60879e-07
1.61318e-07
1.61675e-07
1.61748e-07
1.61679e-07
1.61312e-07
1.61564e-07
1.61716e-07
1.61284e-07
1.60229e-07
1.58439e-07
1.55866e-07
1.53143e-07
1.48147e-07
1.42593e-07
1.35849e-07
1.21255e-07
8.96415e-08
1.255e-09
7.77048e-09
1.76661e-08
3.28119e-08
4.61592e-08
5.65725e-08
6.55728e-08
7.36603e-08
8.10999e-08
8.83972e-08
9.60813e-08
1.03121e-07
1.09425e-07
1.15317e-07
1.20759e-07
1.2617e-07
1.31273e-07
1.33336e-07
1.34833e-07
1.36311e-07
1.37797e-07
1.39316e-07
1.40843e-07
1.42401e-07
1.44982e-07
1.48076e-07
1.51054e-07
1.53972e-07
1.56831e-07
1.59537e-07
1.62029e-07
1.61954e-07
1.61666e-07
1.61358e-07
1.60866e-07
1.60265e-07
1.59411e-07
1.58427e-07
1.56965e-07
1.55941e-07
1.54699e-07
1.52877e-07
1.50296e-07
1.47116e-07
1.43744e-07
1.38111e-07
1.32533e-07
1.25837e-07
1.12225e-07
8.16864e-08
6.74598e-10
2.84746e-09
5.97063e-09
1.30225e-08
2.47957e-08
4.02463e-08
5.34756e-08
6.39027e-08
7.36305e-08
8.24509e-08
9.00528e-08
9.74478e-08
1.04135e-07
1.10257e-07
1.16475e-07
1.23952e-07
1.2976e-07
1.3274e-07
1.34935e-07
1.3688e-07
1.38595e-07
1.40174e-07
1.41653e-07
1.43039e-07
1.45077e-07
1.47829e-07
1.50409e-07
1.5284e-07
1.55127e-07
1.57298e-07
1.59349e-07
1.59019e-07
1.58226e-07
1.5735e-07
1.56293e-07
1.55039e-07
1.53638e-07
1.51893e-07
1.49958e-07
1.47703e-07
1.45283e-07
1.42892e-07
1.39666e-07
1.36009e-07
1.32102e-07
1.26307e-07
1.21057e-07
1.14737e-07
1.01622e-07
7.30936e-08
3.42265e-10
1.3583e-09
2.67082e-09
4.80169e-09
8.97337e-09
1.71667e-08
2.76059e-08
3.99816e-08
5.29174e-08
6.51296e-08
7.58929e-08
8.50757e-08
9.33941e-08
9.98394e-08
1.05572e-07
1.11176e-07
1.15916e-07
1.2002e-07
1.23691e-07
1.26927e-07
1.29677e-07
1.32097e-07
1.34262e-07
1.36228e-07
1.38304e-07
1.408e-07
1.43107e-07
1.45237e-07
1.47181e-07
1.48985e-07
1.50511e-07
1.49715e-07
1.48771e-07
1.47625e-07
1.46254e-07
1.44715e-07
1.42935e-07
1.40854e-07
1.38552e-07
1.35925e-07
1.33043e-07
1.29841e-07
1.26222e-07
1.22359e-07
1.18155e-07
1.12653e-07
1.08038e-07
1.01882e-07
8.93934e-08
6.36873e-08
1.96342e-10
7.46822e-10
1.46037e-09
2.39084e-09
3.82111e-09
6.01285e-09
9.60787e-09
1.56168e-08
2.43364e-08
3.36626e-08
4.36671e-08
5.3621e-08
6.29668e-08
7.10903e-08
7.86197e-08
8.55663e-08
9.1793e-08
9.7371e-08
1.02392e-07
1.06759e-07
1.10635e-07
1.142e-07
1.17331e-07
1.20094e-07
1.22551e-07
1.24938e-07
1.27157e-07
1.2921e-07
1.31091e-07
1.328e-07
1.3292e-07
1.32428e-07
1.31706e-07
1.30787e-07
1.29524e-07
1.28043e-07
1.26288e-07
1.24277e-07
1.2195e-07
1.19373e-07
1.16493e-07
1.13302e-07
1.09715e-07
1.05972e-07
1.01921e-07
9.70387e-08
9.29649e-08
8.68026e-08
7.58472e-08
5.37682e-08
1.25123e-10
4.56702e-10
8.75966e-10
1.40265e-09
2.0457e-09
2.87802e-09
4.00689e-09
5.6454e-09
8.11142e-09
1.18575e-08
1.72188e-08
2.38399e-08
3.12043e-08
3.8078e-08
4.50375e-08
5.1864e-08
5.84553e-08
6.47394e-08
7.06618e-08
7.62956e-08
8.1472e-08
8.6105e-08
9.03866e-08
9.41719e-08
9.71584e-08
9.98265e-08
1.02318e-07
1.04629e-07
1.05837e-07
1.06548e-07
1.07046e-07
1.07288e-07
1.07224e-07
1.06885e-07
1.06131e-07
1.05175e-07
1.03866e-07
1.02236e-07
1.00318e-07
9.81011e-08
9.56252e-08
9.28859e-08
8.98328e-08
8.66263e-08
8.31438e-08
7.92216e-08
7.58952e-08
7.02848e-08
6.15473e-08
4.37147e-08
8.43335e-11
2.97067e-10
5.55371e-10
8.62539e-10
1.22796e-09
1.66496e-09
2.16368e-09
2.79826e-09
3.60926e-09
4.69129e-09
6.10351e-09
7.8384e-09
1.02098e-08
1.3313e-08
1.7147e-08
2.16155e-08
2.65515e-08
3.17808e-08
3.71414e-08
4.23991e-08
4.74901e-08
5.23015e-08
5.67881e-08
6.02342e-08
6.32529e-08
6.59843e-08
6.84663e-08
7.07043e-08
7.2672e-08
7.43441e-08
7.57482e-08
7.68701e-08
7.76515e-08
7.81106e-08
7.81838e-08
7.79673e-08
7.73648e-08
7.6517e-08
7.53794e-08
7.39088e-08
7.22228e-08
7.02603e-08
6.8071e-08
6.5695e-08
6.3235e-08
6.05284e-08
5.79862e-08
5.36812e-08
4.74502e-08
3.3976e-08
5.82805e-11
2.00116e-10
3.68012e-10
5.62069e-10
7.83856e-10
1.03711e-09
1.32848e-09
1.65905e-09
2.02818e-09
2.4735e-09
2.91895e-09
3.41003e-09
4.02383e-09
4.80578e-09
5.8307e-09
7.16479e-09
8.88182e-09
1.1023e-08
1.35621e-08
1.64457e-08
1.94574e-08
2.24395e-08
2.54002e-08
2.83036e-08
3.11015e-08
3.37894e-08
3.63275e-08
3.87198e-08
4.09358e-08
4.29797e-08
4.48475e-08
4.64476e-08
4.78309e-08
4.89157e-08
4.97075e-08
5.02259e-08
5.04348e-08
5.04004e-08
5.00996e-08
4.95621e-08
4.88646e-08
4.79035e-08
4.68071e-08
4.5559e-08
4.42627e-08
4.27626e-08
4.12262e-08
3.86754e-08
3.45154e-08
2.48079e-08
4.05747e-11
1.37026e-10
2.49442e-10
3.77546e-10
5.21307e-10
6.81269e-10
8.5878e-10
1.05622e-09
1.27721e-09
1.50278e-09
1.68479e-09
1.87961e-09
2.09179e-09
2.32891e-09
2.61139e-09
2.94124e-09
3.37127e-09
3.89813e-09
4.53087e-09
5.28548e-09
6.1958e-09
7.27315e-09
8.49351e-09
9.85257e-09
1.13401e-08
1.29031e-08
1.45174e-08
1.62043e-08
1.78443e-08
1.94644e-08
2.10519e-08
2.25182e-08
2.38546e-08
2.5054e-08
2.61045e-08
2.69704e-08
2.76924e-08
2.82415e-08
2.86092e-08
2.88083e-08
2.88892e-08
2.88067e-08
2.86595e-08
2.84183e-08
2.81095e-08
2.76595e-08
2.72027e-08
2.60498e-08
2.3335e-08
1.66892e-08
2.81002e-11
9.3992e-11
1.70207e-10
2.56606e-10
3.52994e-10
4.5926e-10
5.75487e-10
7.02018e-10
8.32073e-10
9.43494e-10
1.05319e-09
1.16049e-09
1.26014e-09
1.35588e-09
1.4541e-09
1.55539e-09
1.66106e-09
1.7863e-09
1.92152e-09
2.06677e-09
2.25648e-09
2.46509e-09
2.73058e-09
3.02974e-09
3.41552e-09
3.87366e-09
4.40496e-09
5.01861e-09
5.69652e-09
6.44258e-09
7.24087e-09
8.0878e-09
8.92122e-09
9.72863e-09
1.05902e-08
1.1404e-08
1.21716e-08
1.2866e-08
1.3479e-08
1.40489e-08
1.4551e-08
1.49786e-08
1.53765e-08
1.57203e-08
1.60408e-08
1.6297e-08
1.65057e-08
1.60996e-08
1.43699e-08
9.99225e-09
1.91167e-11
6.37038e-11
1.15253e-10
1.73797e-10
2.39259e-10
3.11482e-10
3.90302e-10
4.65562e-10
5.37718e-10
6.07861e-10
6.74814e-10
7.37522e-10
7.95218e-10
8.47251e-10
8.93129e-10
9.31608e-10
9.64045e-10
9.90062e-10
1.0103e-09
1.02466e-09
1.03218e-09
1.04696e-09
1.061e-09
1.07085e-09
1.08962e-09
1.12653e-09
1.16484e-09
1.24869e-09
1.36867e-09
1.60064e-09
1.85005e-09
2.1758e-09
2.51699e-09
2.91695e-09
3.32451e-09
3.77298e-09
4.21385e-09
4.7272e-09
5.22427e-09
5.72115e-09
6.23059e-09
6.75585e-09
7.28409e-09
7.80204e-09
8.30711e-09
8.77547e-09
9.12737e-09
8.88999e-09
7.89108e-09
5.088e-09
1.25498e-11
4.19308e-11
7.61724e-11
1.15436e-10
1.58173e-10
2.03183e-10
2.49986e-10
2.9749e-10
3.44529e-10
3.89962e-10
4.32717e-10
4.71751e-10
5.06164e-10
5.35151e-10
5.57982e-10
5.73973e-10
5.82407e-10
5.82766e-10
5.74397e-10
5.58445e-10
5.33339e-10
4.98239e-10
4.52529e-10
3.95765e-10
3.29208e-10
3.47681e-10
3.73877e-10
4.02457e-10
4.35279e-10
4.91145e-10
5.61008e-10
6.43666e-10
7.61158e-10
8.92574e-10
1.05129e-09
1.23857e-09
1.43811e-09
1.68168e-09
1.94036e-09
2.20431e-09
2.49824e-09
2.79935e-09
3.09677e-09
3.50588e-09
3.92494e-09
4.27878e-09
4.42755e-09
4.29656e-09
3.64714e-09
2.014e-09
7.37826e-12
2.49098e-11
4.54881e-11
6.90006e-11
9.51012e-11
1.23253e-10
1.52776e-10
1.82887e-10
2.12752e-10
2.41497e-10
2.68281e-10
2.92287e-10
3.12693e-10
3.28759e-10
3.3971e-10
3.44859e-10
3.43599e-10
3.35225e-10
3.18967e-10
2.93999e-10
2.59293e-10
2.13778e-10
1.56325e-10
1.54191e-10
1.53037e-10
1.50668e-10
1.48017e-10
1.46174e-10
1.46565e-10
1.55195e-10
1.74078e-10
2.01551e-10
2.38172e-10
2.89625e-10
3.55749e-10
4.3249e-10
5.19402e-10
6.24837e-10
7.42438e-10
8.66643e-10
9.96007e-10
1.1252e-09
1.24716e-09
1.37606e-09
1.61853e-09
1.78746e-09
1.87181e-09
1.73319e-09
1.26923e-09
6.31588e-10
3.57222e-12
1.26751e-11
2.39067e-11
3.71471e-11
5.21233e-11
6.84467e-11
8.56632e-11
1.03258e-10
1.20667e-10
1.37303e-10
1.52558e-10
1.65849e-10
1.76525e-10
1.83956e-10
1.87556e-10
1.86741e-10
1.80899e-10
1.6934e-10
1.51299e-10
1.25935e-10
9.23932e-11
8.18315e-11
7.69738e-11
7.06599e-11
6.30436e-11
5.44607e-11
4.59793e-11
3.94864e-11
3.43368e-11
3.21792e-11
3.49635e-11
4.35445e-11
5.80155e-11
8.00415e-11
1.10071e-10
1.46861e-10
1.89807e-10
2.37743e-10
2.89185e-10
3.42196e-10
3.94542e-10
4.40959e-10
4.76626e-10
4.94087e-10
5.81201e-10
6.56616e-10
6.39091e-10
5.23029e-10
3.35183e-10
1.58295e-10
1.02515e-12
4.49951e-12
9.55393e-12
1.5685e-11
2.26532e-11
3.02236e-11
3.81908e-11
4.6279e-11
5.41539e-11
6.14687e-11
6.78495e-11
7.2899e-11
7.62058e-11
7.7362e-11
7.59335e-11
7.14115e-11
6.32138e-11
5.07507e-11
4.06891e-11
3.8816e-11
3.58786e-11
3.19523e-11
2.67141e-11
2.03588e-11
1.30841e-11
4.78436e-12
5.66964e-13
5.99349e-13
6.49031e-13
7.19681e-13
8.30461e-13
1.07052e-12
1.33805e-12
1.62845e-12
1.58687e-11
3.43393e-11
5.57629e-11
7.91873e-11
1.02603e-10
1.23358e-10
1.41346e-10
1.53817e-10
1.60182e-10
1.54279e-10
1.42943e-10
1.5854e-10
1.38616e-10
1.00634e-10
5.80171e-11
2.61515e-11
3.37969e-14
6.07237e-13
1.34281e-12
1.92216e-12
2.38634e-12
2.64193e-12
2.65179e-12
2.98527e-12
3.53792e-12
4.04533e-12
4.46958e-12
4.76975e-12
4.90555e-12
4.84897e-12
4.58547e-12
4.02639e-12
3.08385e-12
1.70165e-12
1.23974e-13
1.23015e-13
1.20135e-13
1.15277e-13
1.08626e-13
1.00831e-13
9.28827e-14
8.61065e-14
8.23607e-14
8.33149e-14
8.98142e-14
1.02719e-13
1.22785e-13
1.49484e-13
1.81663e-13
2.18134e-13
2.57211e-13
2.96566e-13
3.33444e-13
3.64848e-13
3.87297e-13
3.97646e-13
3.93686e-13
5.34766e-12
9.6933e-12
1.17132e-11
1.16617e-11
1.00265e-11
7.33267e-12
4.72428e-12
2.48068e-12
1.42802e-12
)
;

boundaryField
{
    AXIS
    {
        type            empty;
    }
    OUTLET
    {
        type            calculated;
        value           nonuniform List<scalar> 
25
(
1.35316e-07
1.3417e-07
1.31681e-07
1.27935e-07
1.23126e-07
1.17476e-07
1.1131e-07
1.0466e-07
9.72992e-08
8.96415e-08
8.16864e-08
7.30936e-08
6.36873e-08
5.37682e-08
4.37147e-08
3.3976e-08
2.48079e-08
1.66892e-08
9.99225e-09
5.088e-09
2.014e-09
6.31588e-10
1.58295e-10
2.61515e-11
1.42802e-12
)
;
    }
    COFLOW
    {
        type            calculated;
        value           uniform 0;
    }
    PILOT
    {
        type            calculated;
        value           uniform 4.41913e-11;
    }
    FUEL
    {
        type            calculated;
        value           uniform 0;
    }
    WALL
    {
        type            calculated;
        value           nonuniform List<scalar> 
50
(
3.37969e-14
6.07237e-13
1.34281e-12
1.92216e-12
2.38634e-12
2.64193e-12
2.65179e-12
2.98527e-12
3.53792e-12
4.04533e-12
4.46958e-12
4.76975e-12
4.90555e-12
4.84897e-12
4.58547e-12
4.02639e-12
3.08385e-12
1.70165e-12
1.23974e-13
1.23015e-13
1.20135e-13
1.15277e-13
1.08626e-13
1.00831e-13
9.28827e-14
8.61065e-14
8.23607e-14
8.33149e-14
8.98142e-14
1.02719e-13
1.22785e-13
1.49484e-13
1.81663e-13
2.18134e-13
2.57211e-13
2.96566e-13
3.33444e-13
3.64848e-13
3.87297e-13
3.97646e-13
3.93686e-13
5.34766e-12
9.6933e-12
1.17132e-11
1.16617e-11
1.00265e-11
7.33267e-12
4.72428e-12
2.48068e-12
1.42802e-12
)
;
    }
    front
    {
        type            wedge;
    }
    back
    {
        type            wedge;
    }
}


// ************************************************************************* //
