/*--------------------------------*- C++ -*----------------------------------*\
| =========                 |                                                 |
| \\      /  F ield         | OpenFOAM: The Open Source CFD Toolbox           |
|  \\    /   O peration     | Version:  2.4.x                                 |
|   \\  /    A nd           | Web:      www.OpenFOAM.org                      |
|    \\/     M anipulation  |                                                 |
\*---------------------------------------------------------------------------*/
FoamFile
{
    version     2.0;
    format      ascii;
    class       volScalarField;
    location    "0.1";
    object      NH3;
}
// * * * * * * * * * * * * * * * * * * * * * * * * * * * * * * * * * * * * * //

dimensions      [0 0 0 0 0 0 0];

internalField   nonuniform List<scalar> 
1250
(
2.39497e-07
8.59621e-07
1.46067e-06
1.98496e-06
2.44569e-06
2.83422e-06
3.15299e-06
3.40825e-06
3.65932e-06
4.09878e-06
4.56523e-06
5.0871e-06
5.64516e-06
6.24223e-06
6.84903e-06
7.5026e-06
8.19416e-06
8.92545e-06
9.67051e-06
1.04376e-05
1.12126e-05
1.1994e-05
1.27672e-05
1.35232e-05
1.44398e-05
1.54471e-05
1.64287e-05
1.73601e-05
1.82506e-05
1.9069e-05
1.98244e-05
2.04998e-05
2.11032e-05
2.16417e-05
2.21022e-05
2.24642e-05
2.27251e-05
2.28879e-05
2.29249e-05
2.28613e-05
2.26467e-05
2.23443e-05
2.1896e-05
2.12796e-05
2.06388e-05
1.97585e-05
1.8725e-05
1.76953e-05
1.55652e-05
1.03541e-05
2.81908e-07
9.71828e-07
1.58236e-06
2.09761e-06
2.52878e-06
2.87323e-06
3.13724e-06
3.34007e-06
3.71623e-06
4.14929e-06
4.61122e-06
5.12614e-06
5.68714e-06
6.27267e-06
6.8807e-06
7.53888e-06
8.23145e-06
8.95681e-06
9.70539e-06
1.04683e-05
1.12424e-05
1.20192e-05
1.27876e-05
1.35368e-05
1.43607e-05
1.53681e-05
1.63407e-05
1.72703e-05
1.81502e-05
1.89623e-05
1.97084e-05
2.03746e-05
2.09636e-05
2.14951e-05
2.19464e-05
2.22994e-05
2.25534e-05
2.27063e-05
2.27362e-05
2.26629e-05
2.2444e-05
2.21335e-05
2.16834e-05
2.10652e-05
2.04261e-05
1.95457e-05
1.85232e-05
1.74976e-05
1.53846e-05
1.02366e-05
4.1739e-07
1.28608e-06
1.8972e-06
2.35381e-06
2.66926e-06
2.86142e-06
3.06383e-06
3.42617e-06
3.81482e-06
4.22349e-06
4.68193e-06
5.19208e-06
5.74174e-06
6.31835e-06
6.94529e-06
7.60403e-06
8.29711e-06
9.02204e-06
9.76887e-06
1.05292e-05
1.12986e-05
1.20655e-05
1.28227e-05
1.3554e-05
1.42626e-05
1.51887e-05
1.61486e-05
1.70732e-05
1.79334e-05
1.87341e-05
1.94614e-05
2.01092e-05
2.06689e-05
2.11829e-05
2.1611e-05
2.19433e-05
2.21833e-05
2.23111e-05
2.23292e-05
2.22332e-05
2.20105e-05
2.16828e-05
2.12282e-05
2.06065e-05
1.99705e-05
1.90881e-05
1.80821e-05
1.70694e-05
1.49937e-05
9.97944e-06
8.39304e-07
1.97109e-06
2.43606e-06
2.56886e-06
2.64673e-06
2.89878e-06
3.1736e-06
3.47558e-06
3.83336e-06
4.22778e-06
4.68933e-06
5.19414e-06
5.75201e-06
6.35215e-06
6.99057e-06
7.65437e-06
8.35872e-06
9.08658e-06
9.83638e-06
1.05949e-05
1.13544e-05
1.21087e-05
1.28386e-05
1.35487e-05
1.42346e-05
1.48913e-05
1.58459e-05
1.67478e-05
1.75917e-05
1.83695e-05
1.907e-05
1.96871e-05
2.02264e-05
2.06946e-05
2.10949e-05
2.14064e-05
2.1617e-05
2.17212e-05
2.17137e-05
2.15991e-05
2.13589e-05
2.10171e-05
2.05476e-05
1.99274e-05
1.92902e-05
1.8408e-05
1.74344e-05
1.64446e-05
1.44244e-05
9.6076e-06
2.53253e-06
3.34655e-06
2.73201e-06
2.61686e-06
2.61037e-06
2.69483e-06
2.9093e-06
3.19151e-06
3.56599e-06
3.9932e-06
4.49886e-06
5.05063e-06
5.64646e-06
6.2779e-06
6.94647e-06
7.6424e-06
8.36786e-06
9.11387e-06
9.86736e-06
1.06241e-05
1.13683e-05
1.20983e-05
1.2805e-05
1.34842e-05
1.41465e-05
1.47755e-05
1.54111e-05
1.62967e-05
1.71137e-05
1.78581e-05
1.85282e-05
1.91221e-05
1.96269e-05
2.00403e-05
2.04124e-05
2.06888e-05
2.08681e-05
2.09409e-05
2.09076e-05
2.0772e-05
2.05085e-05
2.01547e-05
1.96684e-05
1.90556e-05
1.84181e-05
1.75409e-05
1.66079e-05
1.5653e-05
1.37087e-05
9.14512e-06
8.37522e-06
3.28853e-06
2.5553e-06
2.45335e-06
2.55366e-06
2.74821e-06
3.03303e-06
3.37e-06
3.72748e-06
4.09867e-06
4.50625e-06
4.93326e-06
5.37318e-06
6.05733e-06
6.79012e-06
7.52968e-06
8.293e-06
9.05654e-06
9.81786e-06
1.05707e-05
1.12986e-05
1.20039e-05
1.26801e-05
1.3333e-05
1.39619e-05
1.45593e-05
1.51121e-05
1.57048e-05
1.64949e-05
1.72153e-05
1.78456e-05
1.83951e-05
1.8865e-05
1.925e-05
1.95566e-05
1.98043e-05
1.9945e-05
1.99914e-05
1.99291e-05
1.97653e-05
1.94839e-05
1.91138e-05
1.86204e-05
1.8015e-05
1.73835e-05
1.65188e-05
1.56399e-05
1.47243e-05
1.28878e-05
8.62304e-06
7.89859e-06
3.36015e-06
2.36017e-06
2.24421e-06
2.37511e-06
2.62856e-06
2.99214e-06
3.38802e-06
3.80323e-06
4.22953e-06
4.67529e-06
5.1267e-06
5.57719e-06
6.02472e-06
6.50613e-06
7.3031e-06
8.10262e-06
8.88924e-06
9.6576e-06
1.04034e-05
1.11123e-05
1.17944e-05
1.24464e-05
1.30625e-05
1.36557e-05
1.42131e-05
1.47278e-05
1.51953e-05
1.57404e-05
1.64175e-05
1.7014e-05
1.75299e-05
1.79623e-05
1.83116e-05
1.85664e-05
1.87579e-05
1.88722e-05
1.88856e-05
1.88007e-05
1.86109e-05
1.8315e-05
1.79335e-05
1.74333e-05
1.68445e-05
1.62225e-05
1.53821e-05
1.45675e-05
1.36987e-05
1.19988e-05
8.0575e-06
5.36357e-06
3.4564e-06
2.16926e-06
1.99469e-06
2.13956e-06
2.44766e-06
2.86611e-06
3.31828e-06
3.78327e-06
4.25637e-06
4.73078e-06
5.20052e-06
5.66136e-06
6.10802e-06
6.53943e-06
6.966e-06
7.78576e-06
8.58666e-06
9.35721e-06
1.00931e-05
1.07931e-05
1.14532e-05
1.20723e-05
1.26525e-05
1.3211e-05
1.37224e-05
1.41923e-05
1.46165e-05
1.49902e-05
1.54999e-05
1.6054e-05
1.65274e-05
1.69223e-05
1.72373e-05
1.7461e-05
1.76023e-05
1.76759e-05
1.76585e-05
1.75451e-05
1.73369e-05
1.70298e-05
1.66446e-05
1.61483e-05
1.5583e-05
1.49775e-05
1.41717e-05
1.34298e-05
1.26189e-05
1.10759e-05
7.46348e-06
2.19238e-06
2.9983e-06
2.24921e-06
2.02409e-06
2.13657e-06
2.39088e-06
2.78758e-06
3.2439e-06
3.72016e-06
4.20554e-06
4.68684e-06
5.15873e-06
5.61811e-06
6.05965e-06
6.48288e-06
6.90213e-06
7.41603e-06
8.21124e-06
8.9672e-06
9.68278e-06
1.03529e-05
1.09784e-05
1.15613e-05
1.20972e-05
1.26145e-05
1.30824e-05
1.35075e-05
1.38819e-05
1.42135e-05
1.44931e-05
1.49863e-05
1.54215e-05
1.57753e-05
1.60527e-05
1.62433e-05
1.63553e-05
1.63898e-05
1.63425e-05
1.62074e-05
1.59848e-05
1.56739e-05
1.52883e-05
1.48042e-05
1.42686e-05
1.36847e-05
1.29289e-05
1.22675e-05
1.15217e-05
1.01497e-05
6.79002e-06
5.18582e-07
2.05293e-06
1.88604e-06
2.06811e-06
2.22391e-06
2.4643e-06
2.78315e-06
3.19224e-06
3.63249e-06
4.12174e-06
4.61288e-06
5.10173e-06
5.57628e-06
6.02914e-06
6.45108e-06
6.82381e-06
7.18426e-06
7.87687e-06
8.57897e-06
9.23831e-06
9.85381e-06
1.04206e-05
1.09417e-05
1.14161e-05
1.1875e-05
1.22974e-05
1.2677e-05
1.30064e-05
1.3293e-05
1.35339e-05
1.38339e-05
1.42245e-05
1.45407e-05
1.47807e-05
1.49446e-05
1.50288e-05
1.50393e-05
1.4974e-05
1.48242e-05
1.45924e-05
1.42826e-05
1.39041e-05
1.34404e-05
1.29396e-05
1.23842e-05
1.16909e-05
1.11085e-05
1.04377e-05
9.24058e-06
6.14397e-06
9.21963e-08
9.34173e-07
1.4121e-06
1.70813e-06
2.03415e-06
2.36658e-06
2.70205e-06
3.07986e-06
3.44102e-06
3.86481e-06
4.3093e-06
4.78313e-06
5.24136e-06
5.69004e-06
6.11312e-06
6.47122e-06
6.81199e-06
7.42349e-06
8.04946e-06
8.63758e-06
9.18698e-06
9.69295e-06
1.01605e-05
1.05858e-05
1.09849e-05
1.13551e-05
1.16811e-05
1.19668e-05
1.22127e-05
1.24181e-05
1.25921e-05
1.29382e-05
1.32107e-05
1.34167e-05
1.35485e-05
1.36111e-05
1.3602e-05
1.35261e-05
1.33816e-05
1.31537e-05
1.28506e-05
1.24867e-05
1.2052e-05
1.15903e-05
1.10708e-05
1.0454e-05
9.95561e-06
9.35862e-06
8.25193e-06
5.5169e-06
7.18619e-08
3.95378e-07
8.23249e-07
1.23135e-06
1.6437e-06
1.93579e-06
2.30239e-06
2.66713e-06
3.03572e-06
3.42198e-06
3.7989e-06
4.20135e-06
4.5937e-06
4.98304e-06
5.3495e-06
5.71245e-06
6.18415e-06
6.76082e-06
7.30091e-06
7.81519e-06
8.29858e-06
8.74834e-06
9.16468e-06
9.54561e-06
9.8884e-06
1.02005e-05
1.04754e-05
1.0715e-05
1.09194e-05
1.10924e-05
1.12315e-05
1.14986e-05
1.17266e-05
1.18952e-05
1.19978e-05
1.20378e-05
1.20156e-05
1.19306e-05
1.17875e-05
1.15878e-05
1.13242e-05
1.09821e-05
1.0587e-05
1.01716e-05
9.69943e-06
9.1693e-06
8.75903e-06
8.24258e-06
7.22043e-06
4.88053e-06
4.46896e-08
1.97693e-07
4.11102e-07
6.9015e-07
1.04237e-06
1.38173e-06
1.75973e-06
2.11142e-06
2.41015e-06
2.69429e-06
3.01043e-06
3.39385e-06
3.76704e-06
4.15718e-06
4.56902e-06
4.98769e-06
5.42689e-06
5.8708e-06
6.30539e-06
6.73212e-06
7.14326e-06
7.53379e-06
7.90099e-06
8.24405e-06
8.54429e-06
8.79283e-06
9.01521e-06
9.21144e-06
9.37882e-06
9.52408e-06
9.64758e-06
9.88148e-06
1.00627e-05
1.01948e-05
1.02688e-05
1.02905e-05
1.02584e-05
1.01747e-05
1.00398e-05
9.85655e-06
9.62673e-06
9.35628e-06
9.0292e-06
8.66916e-06
8.26244e-06
7.83342e-06
7.50636e-06
7.02149e-06
6.15075e-06
4.22061e-06
2.82973e-08
1.11581e-07
2.24874e-07
3.64711e-07
5.51286e-07
7.75831e-07
1.02933e-06
1.29958e-06
1.57017e-06
1.94779e-06
2.32334e-06
2.69577e-06
3.06415e-06
3.38263e-06
3.71323e-06
4.04926e-06
4.39126e-06
4.74429e-06
5.09047e-06
5.43393e-06
5.771e-06
6.09584e-06
6.40682e-06
6.70176e-06
6.95226e-06
7.14806e-06
7.32561e-06
7.48508e-06
7.62489e-06
7.74648e-06
7.93633e-06
8.11302e-06
8.25015e-06
8.35125e-06
8.40196e-06
8.41314e-06
8.38009e-06
8.3031e-06
8.18663e-06
8.02915e-06
7.83608e-06
7.60985e-06
7.34976e-06
7.07314e-06
6.75953e-06
6.4244e-06
6.15812e-06
5.73957e-06
5.08746e-06
3.55414e-06
1.85662e-08
6.8568e-08
1.32768e-07
2.1083e-07
2.99946e-07
4.03485e-07
5.24957e-07
6.70922e-07
8.45546e-07
1.05723e-06
1.30376e-06
1.55438e-06
1.78979e-06
2.08857e-06
2.38792e-06
2.6829e-06
2.97625e-06
3.27101e-06
3.56567e-06
3.85825e-06
4.14629e-06
4.42622e-06
4.69402e-06
4.95156e-06
5.14355e-06
5.31032e-06
5.4642e-06
5.60345e-06
5.78165e-06
5.95942e-06
6.11633e-06
6.24877e-06
6.35243e-06
6.42784e-06
6.46362e-06
6.47498e-06
6.44989e-06
6.3893e-06
6.30156e-06
6.18394e-06
6.03877e-06
5.86619e-06
5.67344e-06
5.4622e-06
5.23865e-06
5.00979e-06
4.81905e-06
4.51309e-06
4.06015e-06
2.89682e-06
1.24622e-08
4.39566e-08
8.20714e-08
1.26149e-07
1.75781e-07
2.30704e-07
2.87843e-07
3.52713e-07
4.26091e-07
5.11641e-07
6.12474e-07
7.26863e-07
8.66556e-07
1.02973e-06
1.21389e-06
1.41385e-06
1.6243e-06
1.8406e-06
2.06452e-06
2.28648e-06
2.51314e-06
2.74118e-06
2.9679e-06
3.16183e-06
3.34699e-06
3.52659e-06
3.69457e-06
3.85781e-06
4.00862e-06
4.14559e-06
4.27165e-06
4.378e-06
4.46368e-06
4.5304e-06
4.57025e-06
4.58906e-06
4.58018e-06
4.55186e-06
4.5015e-06
4.42579e-06
4.33201e-06
4.21947e-06
4.09768e-06
3.9631e-06
3.82667e-06
3.69284e-06
3.57785e-06
3.39719e-06
3.10137e-06
2.27283e-06
8.39793e-09
2.87568e-08
5.25552e-08
7.92804e-08
1.08378e-07
1.39418e-07
1.72196e-07
2.05879e-07
2.39555e-07
2.75642e-07
3.11706e-07
3.49698e-07
3.92526e-07
4.42069e-07
5.02889e-07
5.77726e-07
6.70653e-07
7.82963e-07
9.12154e-07
1.05578e-06
1.20699e-06
1.367e-06
1.52191e-06
1.67334e-06
1.81926e-06
1.96138e-06
2.09561e-06
2.22277e-06
2.34055e-06
2.45467e-06
2.55945e-06
2.64824e-06
2.7296e-06
2.79359e-06
2.84374e-06
2.87916e-06
2.89607e-06
2.89857e-06
2.88548e-06
2.85844e-06
2.82153e-06
2.77095e-06
2.71556e-06
2.65507e-06
2.59935e-06
2.54273e-06
2.50694e-06
2.44756e-06
2.26169e-06
1.6845e-06
5.61939e-09
1.88991e-08
3.41254e-08
5.09699e-08
6.90329e-08
8.79147e-08
1.0726e-07
1.26797e-07
1.46339e-07
1.64873e-07
1.80054e-07
1.9441e-07
2.07952e-07
2.21033e-07
2.35224e-07
2.49499e-07
2.68171e-07
2.89619e-07
3.26206e-07
3.73668e-07
4.29598e-07
4.94124e-07
5.64739e-07
6.41348e-07
7.23979e-07
8.08045e-07
8.92426e-07
9.80173e-07
1.06231e-06
1.14307e-06
1.22281e-06
1.29536e-06
1.36123e-06
1.42132e-06
1.47476e-06
1.51819e-06
1.55479e-06
1.58234e-06
1.60061e-06
1.61077e-06
1.61613e-06
1.61609e-06
1.61688e-06
1.61847e-06
1.62484e-06
1.6335e-06
1.66265e-06
1.66585e-06
1.54594e-06
1.15559e-06
3.69857e-09
1.23161e-08
2.21111e-08
3.28917e-08
4.44099e-08
5.63872e-08
6.85393e-08
8.05938e-08
9.20686e-08
1.02013e-07
1.10762e-07
1.18073e-07
1.23417e-07
1.26959e-07
1.29e-07
1.29369e-07
1.2793e-07
1.32643e-07
1.41175e-07
1.49722e-07
1.61009e-07
1.72533e-07
1.87076e-07
2.02448e-07
2.22374e-07
2.45436e-07
2.71475e-07
3.01087e-07
3.33012e-07
3.68319e-07
4.06559e-07
4.47789e-07
4.88011e-07
5.26744e-07
5.69811e-07
6.10621e-07
6.49582e-07
6.85281e-07
7.1738e-07
7.49302e-07
7.79634e-07
8.09159e-07
8.4167e-07
8.78307e-07
9.20245e-07
9.66825e-07
1.02467e-06
1.04716e-06
9.71864e-07
7.05904e-07
2.36709e-09
7.85286e-09
1.40851e-08
2.09609e-08
2.83364e-08
3.60339e-08
4.38554e-08
5.1272e-08
5.80939e-08
6.4162e-08
6.92564e-08
7.31691e-08
7.57221e-08
7.67475e-08
7.60889e-08
7.36281e-08
7.18141e-08
7.30712e-08
7.36575e-08
7.35407e-08
7.26154e-08
7.18897e-08
7.05784e-08
6.83553e-08
6.60632e-08
6.40758e-08
6.13547e-08
6.05593e-08
6.2218e-08
7.3173e-08
8.48527e-08
1.00543e-07
1.16858e-07
1.3629e-07
1.55967e-07
1.77827e-07
1.99153e-07
2.24905e-07
2.49674e-07
2.74571e-07
3.00258e-07
3.36511e-07
3.77578e-07
4.23401e-07
4.73814e-07
5.26016e-07
5.77531e-07
5.8995e-07
5.47358e-07
3.66197e-07
1.44659e-09
4.81164e-09
8.66473e-09
1.29571e-08
1.75563e-08
2.23152e-08
2.70901e-08
3.1706e-08
3.59764e-08
3.97177e-08
4.27531e-08
4.49095e-08
4.60297e-08
4.59669e-08
4.45803e-08
4.27741e-08
4.2943e-08
4.24063e-08
4.11041e-08
3.9155e-08
3.63184e-08
3.25008e-08
2.76253e-08
2.16268e-08
1.45871e-08
1.5453e-08
1.66895e-08
1.80185e-08
1.95228e-08
2.21374e-08
2.53846e-08
2.91997e-08
3.47174e-08
4.08521e-08
4.83136e-08
5.71724e-08
6.65642e-08
7.82479e-08
9.06359e-08
1.03205e-07
1.1733e-07
1.31718e-07
1.45763e-07
1.80449e-07
2.20447e-07
2.58317e-07
2.84699e-07
2.92688e-07
2.59028e-07
1.46002e-07
8.04806e-10
2.71086e-09
4.92798e-09
7.42386e-09
1.01356e-08
1.29747e-08
1.58337e-08
1.85907e-08
2.11164e-08
2.32769e-08
2.49395e-08
2.59755e-08
2.62559e-08
2.56595e-08
2.52985e-08
2.54078e-08
2.49709e-08
2.39274e-08
2.22109e-08
1.97489e-08
1.64517e-08
1.22236e-08
6.96094e-09
6.77017e-09
6.73642e-09
6.64423e-09
6.5348e-09
6.45669e-09
6.47396e-09
6.86992e-09
7.73185e-09
8.97758e-09
1.06351e-08
1.29868e-08
1.60265e-08
1.95538e-08
2.35461e-08
2.84356e-08
3.38979e-08
3.9651e-08
4.56196e-08
5.15436e-08
5.70827e-08
6.47124e-08
8.83921e-08
1.082e-07
1.23385e-07
1.20493e-07
9.05911e-08
4.52847e-08
3.70776e-10
1.3109e-09
2.45542e-09
3.77659e-09
5.22747e-09
6.74649e-09
8.26264e-09
9.69699e-09
1.09644e-08
1.19759e-08
1.26389e-08
1.28628e-08
1.31611e-08
1.35849e-08
1.36834e-08
1.34085e-08
1.27091e-08
1.15273e-08
9.79827e-09
7.45036e-09
4.4099e-09
3.58677e-09
3.37151e-09
3.09199e-09
2.7549e-09
2.37497e-09
1.99939e-09
1.71494e-09
1.48546e-09
1.38561e-09
1.50398e-09
1.88046e-09
2.52033e-09
3.50156e-09
4.84899e-09
6.50636e-09
8.44563e-09
1.06125e-08
1.29379e-08
1.53311e-08
1.7688e-08
1.97696e-08
2.1355e-08
2.2101e-08
3.10906e-08
4.05407e-08
4.23257e-08
3.5984e-08
2.34931e-08
1.11476e-08
9.80681e-11
4.26984e-10
8.89496e-10
1.4242e-09
1.99425e-09
2.56212e-09
3.09215e-09
3.54194e-09
4.04094e-09
4.5526e-09
4.9792e-09
5.28833e-09
5.44644e-09
5.42045e-09
5.17543e-09
4.67004e-09
3.85625e-09
2.68501e-09
1.78519e-09
1.70204e-09
1.57202e-09
1.39838e-09
1.16686e-09
8.86026e-10
5.64517e-10
1.97659e-10
1.09684e-11
1.15936e-11
1.25527e-11
1.39163e-11
1.60739e-11
2.08628e-11
2.61899e-11
3.19631e-11
6.60484e-10
1.47936e-09
2.43121e-09
3.47293e-09
4.51421e-09
5.43629e-09
6.23301e-09
6.78024e-09
7.04927e-09
6.76515e-09
6.46389e-09
8.96574e-09
8.57601e-09
6.51646e-09
3.82825e-09
1.74166e-09
2.76427e-12
4.54237e-11
9.76734e-11
1.32865e-10
1.5412e-10
1.53558e-10
1.27869e-10
1.3107e-10
1.55268e-10
1.77448e-10
1.95939e-10
2.08942e-10
2.14684e-10
2.11933e-10
2.00058e-10
1.75153e-10
1.33346e-10
7.21624e-11
2.39958e-12
2.38104e-12
2.3253e-12
2.23125e-12
2.10248e-12
1.95152e-12
1.79754e-12
1.66623e-12
1.59354e-12
1.6118e-12
1.73738e-12
1.98688e-12
2.37491e-12
2.89116e-12
3.51327e-12
4.21821e-12
4.97331e-12
5.73361e-12
6.4459e-12
7.05239e-12
7.48598e-12
7.68607e-12
7.61008e-12
2.2682e-10
4.19644e-10
5.10165e-10
5.09435e-10
4.38781e-10
3.21234e-10
2.07098e-10
1.08735e-10
6.27087e-11
)
;

boundaryField
{
    AXIS
    {
        type            empty;
    }
    OUTLET
    {
        type            calculated;
        value           nonuniform List<scalar> 
25
(
1.03541e-05
1.02366e-05
9.97944e-06
9.6076e-06
9.14512e-06
8.62304e-06
8.0575e-06
7.46348e-06
6.79002e-06
6.14397e-06
5.5169e-06
4.88053e-06
4.22061e-06
3.55414e-06
2.89682e-06
2.27283e-06
1.6845e-06
1.15559e-06
7.05904e-07
3.66197e-07
1.46002e-07
4.52847e-08
1.11476e-08
1.74166e-09
6.27087e-11
)
;
    }
    COFLOW
    {
        type            calculated;
        value           uniform 0;
    }
    PILOT
    {
        type            calculated;
        value           uniform 7.23913e-11;
    }
    FUEL
    {
        type            calculated;
        value           uniform 0;
    }
    WALL
    {
        type            calculated;
        value           nonuniform List<scalar> 
50
(
2.76427e-12
4.54237e-11
9.76734e-11
1.32865e-10
1.5412e-10
1.53558e-10
1.27869e-10
1.3107e-10
1.55268e-10
1.77448e-10
1.95939e-10
2.08942e-10
2.14684e-10
2.11933e-10
2.00058e-10
1.75153e-10
1.33346e-10
7.21624e-11
2.39958e-12
2.38104e-12
2.3253e-12
2.23125e-12
2.10248e-12
1.95152e-12
1.79754e-12
1.66623e-12
1.59354e-12
1.6118e-12
1.73738e-12
1.98688e-12
2.37491e-12
2.89116e-12
3.51327e-12
4.21821e-12
4.97331e-12
5.73361e-12
6.4459e-12
7.05239e-12
7.48598e-12
7.68607e-12
7.61008e-12
2.2682e-10
4.19644e-10
5.10165e-10
5.09435e-10
4.38781e-10
3.21234e-10
2.07098e-10
1.08735e-10
6.27087e-11
)
;
    }
    front
    {
        type            wedge;
    }
    back
    {
        type            wedge;
    }
}


// ************************************************************************* //
