/*--------------------------------*- C++ -*----------------------------------*\
| =========                 |                                                 |
| \\      /  F ield         | OpenFOAM: The Open Source CFD Toolbox           |
|  \\    /   O peration     | Version:  2.4.x                                 |
|   \\  /    A nd           | Web:      www.OpenFOAM.org                      |
|    \\/     M anipulation  |                                                 |
\*---------------------------------------------------------------------------*/
FoamFile
{
    version     2.0;
    format      ascii;
    class       volScalarField;
    location    "0.1";
    object      NNH;
}
// * * * * * * * * * * * * * * * * * * * * * * * * * * * * * * * * * * * * * //

dimensions      [0 0 0 0 0 0 0];

internalField   nonuniform List<scalar> 
1250
(
2.12951e-12
8.39901e-12
1.66585e-11
2.66224e-11
3.91074e-11
5.45933e-11
7.32767e-11
9.48885e-11
1.18129e-10
1.39492e-10
1.6008e-10
1.76292e-10
1.92356e-10
2.08226e-10
2.24563e-10
2.40954e-10
2.53103e-10
2.58574e-10
2.64687e-10
2.71535e-10
2.79845e-10
2.89718e-10
3.01643e-10
3.05034e-10
3.05557e-10
3.06148e-10
3.08456e-10
3.13422e-10
3.20195e-10
3.29543e-10
3.41669e-10
3.56614e-10
3.72083e-10
3.83502e-10
3.96355e-10
4.11913e-10
4.30279e-10
4.51204e-10
4.75703e-10
5.03317e-10
5.36796e-10
5.72875e-10
6.14771e-10
6.63767e-10
7.11743e-10
7.71698e-10
8.34264e-10
8.91062e-10
9.94736e-10
1.15568e-09
2.38917e-12
9.49216e-12
1.85571e-11
2.96877e-11
4.38461e-11
6.13406e-11
8.22098e-11
1.05664e-10
1.27357e-10
1.49495e-10
1.70222e-10
1.86616e-10
2.02548e-10
2.18601e-10
2.34919e-10
2.51183e-10
2.62668e-10
2.68052e-10
2.73957e-10
2.80889e-10
2.89229e-10
2.99319e-10
3.11318e-10
3.14783e-10
3.16487e-10
3.16829e-10
3.19381e-10
3.24183e-10
3.31027e-10
3.40538e-10
3.52793e-10
3.67946e-10
3.84534e-10
3.95793e-10
4.08694e-10
4.24308e-10
4.42613e-10
4.63578e-10
4.88141e-10
5.15949e-10
5.49424e-10
5.85628e-10
6.27448e-10
6.76199e-10
7.23867e-10
7.83531e-10
8.45162e-10
9.01373e-10
1.00278e-09
1.1556e-09
3.15765e-12
1.26369e-11
2.42812e-11
3.92888e-11
5.86813e-11
8.17922e-11
1.06171e-10
1.28387e-10
1.51366e-10
1.7506e-10
1.95505e-10
2.11687e-10
2.27556e-10
2.43463e-10
2.59193e-10
2.75162e-10
2.85025e-10
2.89877e-10
2.9551e-10
3.02411e-10
3.10884e-10
3.21189e-10
3.33288e-10
3.37004e-10
3.4001e-10
3.41234e-10
3.43862e-10
3.48274e-10
3.552e-10
3.64905e-10
3.77304e-10
3.92836e-10
4.11084e-10
4.22872e-10
4.35913e-10
4.51647e-10
4.69717e-10
4.90804e-10
5.15402e-10
5.43608e-10
5.76816e-10
6.13218e-10
6.54845e-10
7.02991e-10
7.49993e-10
8.09015e-10
8.68726e-10
9.23086e-10
1.01874e-09
1.15512e-09
5.26536e-12
2.09765e-11
4.09728e-11
6.8008e-11
9.75929e-11
1.23322e-10
1.48921e-10
1.74196e-10
1.98786e-10
2.23392e-10
2.4181e-10
2.5677e-10
2.71255e-10
2.8567e-10
3.00271e-10
3.15237e-10
3.2212e-10
3.25892e-10
3.30933e-10
3.37556e-10
3.45974e-10
3.56151e-10
3.6848e-10
3.7247e-10
3.75449e-10
3.80667e-10
3.82389e-10
3.86607e-10
3.93677e-10
4.03353e-10
4.16135e-10
4.31682e-10
4.49639e-10
4.65433e-10
4.78306e-10
4.93529e-10
5.11338e-10
5.32324e-10
5.57018e-10
5.85171e-10
6.18256e-10
6.54424e-10
6.9581e-10
7.42682e-10
7.88725e-10
8.46619e-10
9.03104e-10
9.5436e-10
1.04131e-09
1.15205e-09
1.40134e-11
5.57604e-11
1.04917e-10
1.45098e-10
1.80314e-10
2.10837e-10
2.36816e-10
2.61732e-10
2.84414e-10
3.06673e-10
3.18441e-10
3.29023e-10
3.39567e-10
3.50425e-10
3.62218e-10
3.75324e-10
3.77531e-10
3.79365e-10
3.83158e-10
3.88802e-10
3.96638e-10
4.06473e-10
4.18504e-10
4.23349e-10
4.2571e-10
4.3026e-10
4.37044e-10
4.4085e-10
4.47616e-10
4.57297e-10
4.69679e-10
4.84594e-10
5.02407e-10
5.23188e-10
5.35704e-10
5.50099e-10
5.67377e-10
5.88077e-10
6.12381e-10
6.40132e-10
6.72815e-10
7.08166e-10
7.48807e-10
7.93579e-10
8.38235e-10
8.94211e-10
9.45529e-10
9.92712e-10
1.06708e-09
1.1446e-09
2.4997e-10
2.77087e-10
2.84517e-10
2.99733e-10
3.16237e-10
3.32684e-10
3.49022e-10
3.67183e-10
3.8584e-10
4.03392e-10
4.11832e-10
4.22853e-10
4.36084e-10
4.42883e-10
4.50129e-10
4.58583e-10
4.54681e-10
4.53555e-10
4.54974e-10
4.58761e-10
4.65202e-10
4.74049e-10
4.85196e-10
4.90193e-10
4.91822e-10
4.9624e-10
5.03777e-10
5.12466e-10
5.18179e-10
5.26646e-10
5.38294e-10
5.5276e-10
5.69812e-10
5.89373e-10
6.08124e-10
6.21062e-10
6.37369e-10
6.56998e-10
6.80409e-10
7.07382e-10
7.38767e-10
7.72724e-10
8.11633e-10
8.53642e-10
8.96324e-10
9.48724e-10
9.93302e-10
1.03415e-09
1.0919e-09
1.12945e-09
9.961e-10
6.30539e-10
5.36579e-10
5.04456e-10
4.92765e-10
4.94745e-10
4.97945e-10
5.05269e-10
5.15975e-10
5.23052e-10
5.26171e-10
5.3262e-10
5.41802e-10
5.53582e-10
5.66217e-10
5.65302e-10
5.55996e-10
5.50333e-10
5.48112e-10
5.48957e-10
5.52717e-10
5.59327e-10
5.68773e-10
5.74845e-10
5.75359e-10
5.79028e-10
5.85868e-10
5.95845e-10
6.05419e-10
6.12374e-10
6.22366e-10
6.351e-10
6.50415e-10
6.68186e-10
6.88448e-10
7.04994e-10
7.19298e-10
7.37284e-10
7.58897e-10
7.84225e-10
8.13369e-10
8.4499e-10
8.81513e-10
9.19949e-10
9.59283e-10
1.00617e-09
1.04177e-09
1.07558e-09
1.11225e-09
1.10609e-09
1.2403e-09
8.16979e-10
7.22943e-10
6.89973e-10
6.69109e-10
6.66097e-10
6.63512e-10
6.63719e-10
6.6701e-10
6.64803e-10
6.6297e-10
6.64486e-10
6.69249e-10
6.76529e-10
6.86412e-10
6.93571e-10
6.78345e-10
6.67492e-10
6.60974e-10
6.582e-10
6.58817e-10
6.62733e-10
6.69756e-10
6.76105e-10
6.74811e-10
6.77119e-10
6.82762e-10
6.91642e-10
7.0386e-10
7.12623e-10
7.1995e-10
7.29995e-10
7.42568e-10
7.57577e-10
7.74972e-10
7.94484e-10
8.09497e-10
8.25064e-10
8.44098e-10
8.66608e-10
8.92715e-10
9.21549e-10
9.54646e-10
9.87586e-10
1.02252e-09
1.06112e-09
1.08771e-09
1.11151e-09
1.12376e-09
1.07483e-09
8.21267e-10
7.19123e-10
6.86839e-10
7.35821e-10
7.69334e-10
7.86619e-10
7.9962e-10
8.05308e-10
8.09097e-10
8.07378e-10
8.05653e-10
8.05548e-10
8.07582e-10
8.11631e-10
8.18147e-10
8.2134e-10
8.17852e-10
8.01968e-10
7.90907e-10
7.83716e-10
7.80197e-10
7.80357e-10
7.83717e-10
7.89425e-10
7.86362e-10
7.86859e-10
7.90908e-10
7.98292e-10
8.08892e-10
8.22606e-10
8.27147e-10
8.33407e-10
8.42192e-10
8.53498e-10
8.67267e-10
8.83039e-10
9.0066e-10
9.14552e-10
9.30389e-10
9.4989e-10
9.7254e-10
9.96941e-10
1.02444e-09
1.0507e-09
1.07958e-09
1.10905e-09
1.12458e-09
1.13782e-09
1.12245e-09
1.04557e-09
2.67851e-10
3.30193e-10
4.55194e-10
6.00884e-10
7.18863e-10
8.00589e-10
8.53303e-10
8.86638e-10
9.13917e-10
9.33382e-10
9.45348e-10
9.52884e-10
9.59582e-10
9.65197e-10
9.70875e-10
9.68927e-10
9.68637e-10
9.50086e-10
9.33748e-10
9.21057e-10
9.12e-10
9.0673e-10
9.0432e-10
9.04845e-10
9.02026e-10
9.01325e-10
9.03997e-10
9.09466e-10
9.17935e-10
9.29167e-10
9.37425e-10
9.39459e-10
9.44075e-10
9.50894e-10
9.60063e-10
9.7118e-10
9.84332e-10
9.99013e-10
1.01206e-09
1.02735e-09
1.0449e-09
1.06398e-09
1.08514e-09
1.10471e-09
1.12666e-09
1.14495e-09
1.15063e-09
1.15052e-09
1.10784e-09
1.00732e-09
2.33826e-11
8.14483e-11
1.81297e-10
3.62164e-10
5.41518e-10
6.83398e-10
7.92161e-10
8.71625e-10
9.33556e-10
9.78248e-10
1.01814e-09
1.04675e-09
1.06763e-09
1.08411e-09
1.09746e-09
1.10285e-09
1.10678e-09
1.08836e-09
1.06867e-09
1.05213e-09
1.03879e-09
1.02902e-09
1.02177e-09
1.01749e-09
1.01464e-09
1.01354e-09
1.01508e-09
1.01929e-09
1.02607e-09
1.03499e-09
1.04565e-09
1.0433e-09
1.04317e-09
1.04561e-09
1.04977e-09
1.05592e-09
1.06338e-09
1.07257e-09
1.08199e-09
1.09301e-09
1.10561e-09
1.11882e-09
1.13258e-09
1.14459e-09
1.15903e-09
1.16438e-09
1.15883e-09
1.14636e-09
1.08935e-09
9.59787e-10
8.71928e-12
2.93207e-11
5.7742e-11
1.31744e-10
2.66413e-10
4.52082e-10
6.14444e-10
7.41662e-10
8.49055e-10
9.33581e-10
9.96659e-10
1.04575e-09
1.08411e-09
1.11352e-09
1.13946e-09
1.1689e-09
1.1825e-09
1.17499e-09
1.16386e-09
1.15255e-09
1.14158e-09
1.13213e-09
1.12421e-09
1.11803e-09
1.1153e-09
1.11559e-09
1.11767e-09
1.12147e-09
1.12701e-09
1.13413e-09
1.14299e-09
1.13839e-09
1.13368e-09
1.1311e-09
1.13037e-09
1.13109e-09
1.13352e-09
1.1361e-09
1.1398e-09
1.14355e-09
1.14812e-09
1.15566e-09
1.1611e-09
1.16454e-09
1.16959e-09
1.16265e-09
1.14714e-09
1.12113e-09
1.05607e-09
8.99594e-10
3.77504e-12
1.36859e-11
2.55532e-11
4.63234e-11
8.99356e-11
1.79801e-10
3.05086e-10
4.56332e-10
6.10284e-10
7.47255e-10
8.58692e-10
9.44137e-10
1.0133e-09
1.06452e-09
1.1058e-09
1.13774e-09
1.15763e-09
1.16922e-09
1.17647e-09
1.18026e-09
1.1812e-09
1.18065e-09
1.1793e-09
1.17806e-09
1.17922e-09
1.1844e-09
1.18976e-09
1.19552e-09
1.20192e-09
1.20881e-09
1.2157e-09
1.20698e-09
1.19979e-09
1.19338e-09
1.18821e-09
1.18429e-09
1.18108e-09
1.17792e-09
1.17543e-09
1.17219e-09
1.16894e-09
1.16476e-09
1.16022e-09
1.15536e-09
1.14996e-09
1.13097e-09
1.10847e-09
1.07713e-09
1.00059e-09
8.23468e-10
2.00814e-12
7.38477e-12
1.40874e-11
2.30241e-11
3.73003e-11
6.09146e-11
1.02569e-10
1.7474e-10
2.80616e-10
3.94085e-10
5.11833e-10
6.23444e-10
7.2223e-10
8.10988e-10
8.86912e-10
9.51494e-10
1.00361e-09
1.04483e-09
1.07857e-09
1.10529e-09
1.12525e-09
1.13994e-09
1.15181e-09
1.16134e-09
1.17181e-09
1.18579e-09
1.19794e-09
1.20898e-09
1.21945e-09
1.22933e-09
1.226e-09
1.21914e-09
1.2123e-09
1.2055e-09
1.19852e-09
1.19166e-09
1.18471e-09
1.1778e-09
1.16962e-09
1.16122e-09
1.15178e-09
1.1411e-09
1.1281e-09
1.11331e-09
1.09687e-09
1.07143e-09
1.04681e-09
1.00698e-09
9.17779e-10
7.30489e-10
1.24832e-12
4.50318e-12
8.54202e-12
1.37257e-11
2.03281e-11
2.93695e-11
4.23098e-11
6.20021e-11
9.27529e-11
1.40062e-10
2.07402e-10
2.91479e-10
3.85626e-10
4.72649e-10
5.57703e-10
6.37845e-10
7.11291e-10
7.77223e-10
8.3605e-10
8.89044e-10
9.33401e-10
9.71065e-10
1.00359e-09
1.03044e-09
1.05788e-09
1.08289e-09
1.10586e-09
1.12696e-09
1.13631e-09
1.14051e-09
1.14297e-09
1.14332e-09
1.14184e-09
1.13902e-09
1.13439e-09
1.12893e-09
1.12199e-09
1.11386e-09
1.10383e-09
1.0921e-09
1.07907e-09
1.06442e-09
1.04676e-09
1.02801e-09
1.00593e-09
9.77186e-10
9.50097e-10
8.9898e-10
8.07282e-10
6.22959e-10
8.44533e-13
2.96948e-12
5.55209e-12
8.68805e-12
1.25696e-11
1.74474e-11
2.32673e-11
3.10475e-11
4.13484e-11
5.55143e-11
7.46328e-11
9.96339e-11
1.34114e-10
1.79176e-10
2.34032e-10
2.96394e-10
3.63293e-10
4.31946e-10
4.99248e-10
5.63176e-10
6.22081e-10
6.75356e-10
7.22916e-10
7.64998e-10
8.02216e-10
8.36002e-10
8.67036e-10
8.93092e-10
9.15582e-10
9.34386e-10
9.49329e-10
9.61534e-10
9.70292e-10
9.75678e-10
9.77977e-10
9.77875e-10
9.74703e-10
9.69615e-10
9.62197e-10
9.52139e-10
9.4038e-10
9.25962e-10
9.08554e-10
8.89118e-10
8.67557e-10
8.40521e-10
8.12114e-10
7.57674e-10
6.73361e-10
5.06224e-10
5.96401e-13
2.0518e-12
3.79088e-12
5.84485e-12
8.27457e-12
1.11741e-11
1.46777e-11
1.88408e-11
2.36707e-11
2.9733e-11
3.63553e-11
4.41186e-11
5.41976e-11
6.73432e-11
8.45942e-11
1.06899e-10
1.35039e-10
1.69186e-10
2.08568e-10
2.51939e-10
2.96569e-10
3.40727e-10
3.84938e-10
4.2837e-10
4.70231e-10
5.10276e-10
5.4811e-10
5.83509e-10
6.16293e-10
6.45539e-10
6.71641e-10
6.9444e-10
7.13118e-10
7.28344e-10
7.39717e-10
7.4777e-10
7.52401e-10
7.54232e-10
7.52958e-10
7.48908e-10
7.4292e-10
7.33495e-10
7.21794e-10
7.0751e-10
6.9095e-10
6.69802e-10
6.43836e-10
5.96421e-10
5.27665e-10
3.85611e-10
4.28722e-13
1.45221e-12
2.65947e-12
4.06451e-12
5.69013e-12
7.56999e-12
9.75018e-12
1.22913e-11
1.52722e-11
1.85196e-11
2.14712e-11
2.48839e-11
2.88772e-11
3.35922e-11
3.93017e-11
4.62228e-11
5.50238e-11
6.58476e-11
7.79272e-11
9.20873e-11
1.09208e-10
1.29484e-10
1.52575e-10
1.7829e-10
2.06201e-10
2.35594e-10
2.65939e-10
2.97069e-10
3.27616e-10
3.57189e-10
3.8498e-10
4.10428e-10
4.33367e-10
4.53638e-10
4.71193e-10
4.85868e-10
4.9771e-10
5.06946e-10
5.1349e-10
5.17396e-10
5.1919e-10
5.1793e-10
5.14874e-10
5.09307e-10
5.00823e-10
4.87983e-10
4.70072e-10
4.36565e-10
3.82622e-10
2.69883e-10
3.08388e-13
1.03469e-12
1.88482e-12
2.86745e-12
3.99358e-12
5.27758e-12
6.73785e-12
8.39701e-12
1.02023e-11
1.19366e-11
1.3806e-11
1.58292e-11
1.79237e-11
2.01599e-11
2.26813e-11
2.55309e-11
2.87684e-11
3.19249e-11
3.51413e-11
3.88403e-11
4.35685e-11
4.90876e-11
5.60391e-11
6.41775e-11
7.43544e-11
8.63756e-11
1.00225e-10
1.15886e-10
1.32932e-10
1.51059e-10
1.69759e-10
1.88689e-10
2.07029e-10
2.2454e-10
2.41903e-10
2.58019e-10
2.7285e-10
2.86033e-10
2.97516e-10
3.07419e-10
3.15574e-10
3.21599e-10
3.25914e-10
3.27426e-10
3.26704e-10
3.22509e-10
3.13008e-10
2.91316e-10
2.5011e-10
1.68536e-10
2.18651e-13
7.30666e-13
1.32909e-12
2.02061e-12
2.81231e-12
3.71176e-12
4.72762e-12
5.76154e-12
6.83018e-12
7.95767e-12
9.14392e-12
1.03907e-11
1.17038e-11
1.3091e-11
1.45629e-11
1.60796e-11
1.74149e-11
1.83586e-11
1.93354e-11
2.03601e-11
2.14354e-11
2.28434e-11
2.45178e-11
2.64327e-11
2.88664e-11
3.20917e-11
3.57448e-11
4.07279e-11
4.63875e-11
5.32765e-11
6.07134e-11
6.98079e-11
7.93087e-11
8.99309e-11
1.00674e-10
1.1204e-10
1.23139e-10
1.35108e-10
1.46559e-10
1.57584e-10
1.68383e-10
1.76739e-10
1.83668e-10
1.88581e-10
1.91358e-10
1.91822e-10
1.87355e-10
1.72004e-10
1.43843e-10
8.98698e-11
1.49916e-13
5.02159e-13
9.16723e-13
1.39951e-12
1.93887e-12
2.52765e-12
3.16714e-12
3.85255e-12
4.57861e-12
5.3405e-12
6.13434e-12
6.95661e-12
7.80559e-12
8.68076e-12
9.58294e-12
1.04022e-11
1.08677e-11
1.12598e-11
1.15749e-11
1.18226e-11
1.20273e-11
1.21923e-11
1.23258e-11
1.24403e-11
1.25669e-11
1.32306e-11
1.41545e-11
1.5209e-11
1.64537e-11
1.84414e-11
2.09202e-11
2.3833e-11
2.77808e-11
3.21484e-11
3.72636e-11
4.31139e-11
4.92405e-11
5.63264e-11
6.36615e-11
7.09775e-11
7.87573e-11
8.64782e-11
9.38984e-11
9.85111e-11
1.01424e-10
1.01984e-10
9.74811e-11
8.68628e-11
6.8895e-11
3.77411e-11
9.27462e-14
3.14092e-13
5.77062e-13
8.83399e-13
1.23272e-12
1.62299e-12
2.05095e-12
2.51257e-12
3.00345e-12
3.51881e-12
4.05461e-12
4.60696e-12
5.17186e-12
5.74652e-12
6.19519e-12
6.47839e-12
6.69321e-12
6.83236e-12
6.88845e-12
6.85435e-12
6.7208e-12
6.4797e-12
6.12459e-12
6.11249e-12
6.07718e-12
6.01757e-12
5.96874e-12
5.96985e-12
6.07061e-12
6.48896e-12
7.29762e-12
8.41508e-12
9.84539e-12
1.17798e-11
1.4183e-11
1.68916e-11
1.98812e-11
2.33894e-11
2.71924e-11
3.11113e-11
3.51071e-11
3.90206e-11
4.2645e-11
4.56058e-11
4.68828e-11
4.60153e-11
4.26634e-11
3.60422e-11
2.52373e-11
1.25988e-11
4.7899e-14
1.70698e-13
3.24651e-13
5.10564e-13
7.27724e-13
9.74285e-13
1.24794e-12
1.54585e-12
1.86467e-12
2.20103e-12
2.55147e-12
2.91299e-12
3.21619e-12
3.44182e-12
3.6254e-12
3.75964e-12
3.83724e-12
3.8502e-12
3.79014e-12
3.64803e-12
3.41529e-12
3.2663e-12
3.10229e-12
2.88609e-12
2.62423e-12
2.33017e-12
2.04469e-12
1.8536e-12
1.73082e-12
1.7325e-12
1.92314e-12
2.32584e-12
2.93762e-12
3.83768e-12
5.01815e-12
6.40406e-12
7.96984e-12
9.67322e-12
1.14639e-11
1.32755e-11
1.50363e-11
1.65827e-11
1.77521e-11
1.83033e-11
1.83547e-11
1.73865e-11
1.51065e-11
1.15153e-11
7.11682e-12
3.33926e-12
1.50688e-14
6.66855e-14
1.44308e-13
2.42636e-13
3.60361e-13
4.96411e-13
6.50318e-13
8.20576e-13
9.85944e-13
1.14276e-12
1.29326e-12
1.43219e-12
1.55407e-12
1.65337e-12
1.72398e-12
1.75903e-12
1.75111e-12
1.69308e-12
1.61847e-12
1.55689e-12
1.45595e-12
1.31872e-12
1.13341e-12
9.07841e-13
6.49986e-13
3.5649e-13
2.11196e-13
2.23283e-13
2.41829e-13
2.68213e-13
3.07962e-13
3.84617e-13
4.70639e-13
5.64473e-13
1.1349e-12
1.84327e-12
2.64348e-12
3.50088e-12
4.34576e-12
5.08667e-12
5.71515e-12
6.13884e-12
6.34564e-12
6.11866e-12
5.52992e-12
4.8757e-12
3.75038e-12
2.52248e-12
1.40576e-12
6.22876e-13
5.71179e-16
1.09922e-14
2.62413e-14
4.24096e-14
6.02068e-14
7.85666e-14
9.71923e-14
1.18785e-13
1.41555e-13
1.62919e-13
1.81451e-13
1.95606e-13
2.03853e-13
2.05104e-13
1.98724e-13
1.81407e-13
1.49838e-13
1.01889e-13
4.61547e-14
4.57952e-14
4.472e-14
4.29079e-14
4.04286e-14
3.75235e-14
3.45615e-14
3.20364e-14
3.06399e-14
3.09938e-14
3.34131e-14
3.82191e-14
4.56947e-14
5.56446e-14
6.76412e-14
8.12433e-14
9.58229e-14
1.10513e-13
1.24283e-13
1.36013e-13
1.444e-13
1.48267e-13
1.46786e-13
3.16649e-13
4.5939e-13
5.14912e-13
4.93901e-13
4.15691e-13
3.00527e-13
1.92385e-13
1.0138e-13
5.68894e-14
)
;

boundaryField
{
    AXIS
    {
        type            empty;
    }
    OUTLET
    {
        type            calculated;
        value           nonuniform List<scalar> 
25
(
1.15568e-09
1.1556e-09
1.15512e-09
1.15205e-09
1.1446e-09
1.12945e-09
1.10609e-09
1.07483e-09
1.04557e-09
1.00732e-09
9.59787e-10
8.99594e-10
8.23468e-10
7.30489e-10
6.22959e-10
5.06224e-10
3.85611e-10
2.69883e-10
1.68536e-10
8.98698e-11
3.77411e-11
1.25988e-11
3.33926e-12
6.22876e-13
5.68894e-14
)
;
    }
    COFLOW
    {
        type            calculated;
        value           uniform 0;
    }
    PILOT
    {
        type            calculated;
        value           uniform 8.03727e-10;
    }
    FUEL
    {
        type            calculated;
        value           uniform 0;
    }
    WALL
    {
        type            calculated;
        value           nonuniform List<scalar> 
50
(
5.71179e-16
1.09922e-14
2.62413e-14
4.24096e-14
6.02068e-14
7.85666e-14
9.71923e-14
1.18785e-13
1.41555e-13
1.62919e-13
1.81451e-13
1.95606e-13
2.03853e-13
2.05104e-13
1.98724e-13
1.81407e-13
1.49838e-13
1.01889e-13
4.61547e-14
4.57952e-14
4.472e-14
4.29079e-14
4.04286e-14
3.75235e-14
3.45615e-14
3.20364e-14
3.06399e-14
3.09938e-14
3.34131e-14
3.82191e-14
4.56947e-14
5.56446e-14
6.76412e-14
8.12433e-14
9.58229e-14
1.10513e-13
1.24283e-13
1.36013e-13
1.444e-13
1.48267e-13
1.46786e-13
3.16649e-13
4.5939e-13
5.14912e-13
4.93901e-13
4.15691e-13
3.00527e-13
1.92385e-13
1.0138e-13
5.68894e-14
)
;
    }
    front
    {
        type            wedge;
    }
    back
    {
        type            wedge;
    }
}


// ************************************************************************* //
