/*--------------------------------*- C++ -*----------------------------------*\
| =========                 |                                                 |
| \\      /  F ield         | OpenFOAM: The Open Source CFD Toolbox           |
|  \\    /   O peration     | Version:  2.4.x                                 |
|   \\  /    A nd           | Web:      www.OpenFOAM.org                      |
|    \\/     M anipulation  |                                                 |
\*---------------------------------------------------------------------------*/
FoamFile
{
    version     2.0;
    format      ascii;
    class       volScalarField;
    location    "0.1";
    object      NO;
}
// * * * * * * * * * * * * * * * * * * * * * * * * * * * * * * * * * * * * * //

dimensions      [0 0 0 0 0 0 0];

internalField   nonuniform List<scalar> 
1250
(
5.19002e-07
2.02996e-06
3.96267e-06
5.9448e-06
7.79579e-06
9.35806e-06
1.05957e-05
1.15346e-05
1.24699e-05
1.43602e-05
1.61922e-05
1.77416e-05
1.92973e-05
2.08548e-05
2.24397e-05
2.40232e-05
2.53784e-05
2.63499e-05
2.73376e-05
2.83358e-05
2.93978e-05
3.05287e-05
3.17648e-05
3.25891e-05
3.39502e-05
3.57568e-05
3.766e-05
3.97583e-05
4.19865e-05
4.44647e-05
4.71599e-05
5.01504e-05
5.32682e-05
5.63249e-05
5.96117e-05
6.32114e-05
6.71418e-05
7.14028e-05
7.6131e-05
8.11736e-05
8.68858e-05
9.28556e-05
9.94055e-05
0.000106849
0.000113948
0.000122567
0.000131815
0.000138991
0.000150928
0.000177553
5.809e-07
2.27933e-06
4.35739e-06
6.41744e-06
8.24696e-06
9.6919e-06
1.07554e-05
1.15367e-05
1.32209e-05
1.51529e-05
1.69917e-05
1.85559e-05
2.01118e-05
2.16813e-05
2.32666e-05
2.48461e-05
2.61657e-05
2.71391e-05
2.81142e-05
2.91211e-05
3.01845e-05
3.13298e-05
3.25674e-05
3.33973e-05
3.45233e-05
3.63683e-05
3.83455e-05
4.04763e-05
4.27701e-05
4.52895e-05
4.80423e-05
5.10736e-05
5.4304e-05
5.73898e-05
6.07134e-05
6.43468e-05
6.8299e-05
7.25955e-05
7.73417e-05
8.24175e-05
8.8136e-05
9.4123e-05
0.000100668
0.000108095
0.000115168
0.000123762
0.000132931
0.000140033
0.000151743
0.000177783
7.62755e-07
2.98381e-06
5.43229e-06
7.5823e-06
9.1774e-06
1.01577e-05
1.122e-05
1.31349e-05
1.5091e-05
1.71024e-05
1.8919e-05
2.04853e-05
2.20459e-05
2.36128e-05
2.51694e-05
2.67333e-05
2.79703e-05
2.89216e-05
2.98863e-05
3.08949e-05
3.19683e-05
3.31232e-05
3.43625e-05
3.52089e-05
3.60199e-05
3.77196e-05
3.98243e-05
4.20449e-05
4.44615e-05
4.70749e-05
4.99382e-05
5.30614e-05
5.64851e-05
5.96894e-05
6.30964e-05
6.68055e-05
7.08064e-05
7.51854e-05
7.99616e-05
8.51121e-05
9.0823e-05
9.68473e-05
0.00010338
0.000110769
0.000117788
0.000126333
0.000135328
0.000142263
0.000153414
0.000178263
1.25209e-06
4.6982e-06
7.60813e-06
9.14194e-06
1.02945e-05
1.24024e-05
1.44564e-05
1.64755e-05
1.84907e-05
2.05346e-05
2.22437e-05
2.37634e-05
2.52647e-05
2.67636e-05
2.82577e-05
2.97652e-05
3.08537e-05
3.17611e-05
3.27006e-05
3.37008e-05
3.4765e-05
3.59066e-05
3.71568e-05
3.80229e-05
3.88378e-05
3.97633e-05
4.2011e-05
4.44157e-05
4.69954e-05
4.97769e-05
5.27906e-05
5.60707e-05
5.96095e-05
6.31638e-05
6.668e-05
7.04682e-05
7.45699e-05
7.90234e-05
8.38771e-05
8.90778e-05
9.48181e-05
0.000100849
0.00010739
0.000114691
0.000121644
0.000130088
0.00013881
0.000145495
0.0001558
0.000178774
3.15382e-06
9.01604e-06
1.08312e-05
1.36738e-05
1.60385e-05
1.81267e-05
2.00796e-05
2.20303e-05
2.39425e-05
2.58757e-05
2.72929e-05
2.86364e-05
2.99603e-05
3.12771e-05
3.26343e-05
3.40608e-05
3.49392e-05
3.57671e-05
3.6647e-05
3.75903e-05
3.86226e-05
3.97469e-05
4.09856e-05
4.19016e-05
4.26956e-05
4.36002e-05
4.48607e-05
4.75062e-05
5.03176e-05
5.33199e-05
5.65354e-05
5.99763e-05
6.36822e-05
6.76732e-05
7.13397e-05
7.52549e-05
7.94632e-05
8.40184e-05
8.89456e-05
9.41924e-05
9.99656e-05
0.000105976
0.000112513
0.000119677
0.00012653
0.00013482
0.00014314
0.000149538
0.000158612
0.000179132
2.52836e-05
2.31363e-05
2.20209e-05
2.25685e-05
2.365e-05
2.49376e-05
2.6454e-05
2.8168e-05
2.99487e-05
3.1696e-05
3.30058e-05
3.44527e-05
3.60087e-05
3.72085e-05
3.8395e-05
3.96261e-05
4.02543e-05
4.09557e-05
4.17364e-05
4.26021e-05
4.35808e-05
4.46635e-05
4.58644e-05
4.68024e-05
4.75857e-05
4.84997e-05
4.95677e-05
5.1226e-05
5.43216e-05
5.75726e-05
6.10378e-05
6.47151e-05
6.86137e-05
7.27563e-05
7.69879e-05
8.10166e-05
8.53617e-05
9.00001e-05
9.49963e-05
0.000100298
0.000106062
0.000112049
0.000118526
0.000125516
0.000132215
0.000140269
0.000148095
0.000154008
0.000161607
0.000179031
7.70987e-05
4.14067e-05
3.34129e-05
3.15376e-05
3.14536e-05
3.2323e-05
3.36074e-05
3.51221e-05
3.68077e-05
3.82797e-05
3.95085e-05
4.08559e-05
4.22926e-05
4.38197e-05
4.53635e-05
4.6256e-05
4.67128e-05
4.72611e-05
4.79147e-05
4.86741e-05
4.95447e-05
5.05526e-05
5.17132e-05
5.27346e-05
5.34937e-05
5.44004e-05
5.54639e-05
5.66945e-05
5.88825e-05
6.24583e-05
6.61969e-05
7.01173e-05
7.4235e-05
7.856e-05
8.31323e-05
8.76088e-05
9.20496e-05
9.67817e-05
0.000101818
0.00010715
0.00011288
0.000118805
0.000125184
0.000131936
0.000138417
0.000146153
0.00015332
0.000158679
0.00016453
0.000178368
0.000119852
5.39383e-05
4.14453e-05
3.88238e-05
3.84258e-05
3.943e-05
4.08704e-05
4.24812e-05
4.4199e-05
4.55047e-05
4.67152e-05
4.79998e-05
4.9363e-05
5.07719e-05
5.22487e-05
5.3576e-05
5.38943e-05
5.43197e-05
5.48775e-05
5.5561e-05
5.63757e-05
5.73367e-05
5.8452e-05
5.95572e-05
6.02916e-05
6.11812e-05
6.22257e-05
6.34305e-05
6.48155e-05
6.77957e-05
7.18557e-05
7.60556e-05
8.04097e-05
8.49315e-05
8.96495e-05
9.45564e-05
9.92863e-05
0.000104092
0.000109165
0.00011449
0.000120156
0.000125972
0.000132193
0.000138623
0.000144853
0.000152095
0.000158577
0.000163184
0.000167056
0.0001769
0.000171175
5.60261e-05
4.35973e-05
4.2421e-05
4.35609e-05
4.50653e-05
4.71515e-05
4.91987e-05
5.11519e-05
5.26212e-05
5.40038e-05
5.53712e-05
5.67485e-05
5.81328e-05
5.95614e-05
6.07467e-05
6.15928e-05
6.19691e-05
6.24859e-05
6.31163e-05
6.38695e-05
6.47752e-05
6.58274e-05
6.7006e-05
6.77248e-05
6.85927e-05
6.96177e-05
7.07957e-05
7.21392e-05
7.36546e-05
7.78603e-05
8.23548e-05
8.69547e-05
9.16766e-05
9.65365e-05
0.000101538
0.000106691
0.000111659
0.000116744
0.000122035
0.000127597
0.000133234
0.000139211
0.000145246
0.0001511
0.000157822
0.000163436
0.000167221
0.000168915
0.000175055
0.000119554
3.98734e-05
3.64928e-05
4.09371e-05
4.48596e-05
4.83572e-05
5.14047e-05
5.43164e-05
5.69838e-05
5.94442e-05
6.15617e-05
6.3464e-05
6.52111e-05
6.68297e-05
6.83473e-05
6.91798e-05
7.00051e-05
7.03674e-05
7.08085e-05
7.13335e-05
7.19691e-05
7.27452e-05
7.36235e-05
7.46293e-05
7.54366e-05
7.63122e-05
7.73326e-05
7.84828e-05
7.97828e-05
8.12272e-05
8.409e-05
8.88828e-05
9.3727e-05
9.86312e-05
0.000103625
0.000108697
0.000113877
0.000119142
0.000124265
0.000129466
0.000134862
0.000140256
0.000145905
0.000151539
0.000156984
0.000163035
0.000167798
0.000170529
0.00017005
0.000172399
1.72586e-05
2.54349e-05
2.28779e-05
3.22923e-05
4.08955e-05
4.7309e-05
5.24185e-05
5.67931e-05
6.02667e-05
6.34796e-05
6.65824e-05
6.94337e-05
7.1856e-05
7.4044e-05
7.59826e-05
7.70382e-05
7.79995e-05
7.8481e-05
7.89205e-05
7.94191e-05
7.99964e-05
8.06978e-05
8.147e-05
8.23658e-05
8.32605e-05
8.41746e-05
8.51984e-05
8.63426e-05
8.76126e-05
8.89906e-05
9.06416e-05
9.573e-05
0.000100788
0.000105863
0.000110939
0.00011605
0.00012119
0.000126384
0.000131554
0.000136665
0.000141843
0.000146958
0.000152218
0.000157362
0.000162343
0.000167554
0.000171291
0.000172953
0.000170594
0.000169033
4.61523e-06
1.1969e-05
1.73485e-05
2.16897e-05
2.91678e-05
3.93609e-05
4.7952e-05
5.45843e-05
6.01639e-05
6.4854e-05
6.85423e-05
7.18872e-05
7.47138e-05
7.7204e-05
7.93971e-05
8.16205e-05
8.35233e-05
8.4769e-05
8.57136e-05
8.65857e-05
8.74119e-05
8.82683e-05
8.91477e-05
9.00797e-05
9.10751e-05
9.20817e-05
9.31693e-05
9.43361e-05
9.55867e-05
9.69133e-05
9.83356e-05
0.000103183
0.000108412
0.000113584
0.000118704
0.000123779
0.000128852
0.000133839
0.000138831
0.000143725
0.000148604
0.000153394
0.000158132
0.000162659
0.000167026
0.000171336
0.000173949
0.000174262
0.00017019
0.000164663
1.74537e-06
5.79744e-06
9.79263e-06
1.53417e-05
2.20128e-05
2.61531e-05
3.47834e-05
4.44888e-05
5.29396e-05
5.9987e-05
6.5801e-05
7.08043e-05
7.49577e-05
7.8395e-05
8.14714e-05
8.41163e-05
8.63432e-05
8.82591e-05
8.99618e-05
9.15152e-05
9.29259e-05
9.42676e-05
9.5545e-05
9.68184e-05
9.80802e-05
9.93043e-05
0.000100546
0.00010181
0.000103114
0.000104436
0.000105975
0.000111424
0.000116726
0.000121876
0.000126911
0.000131864
0.000136718
0.000141427
0.000146084
0.000150568
0.000155004
0.000159184
0.000163315
0.000167118
0.000170676
0.000173894
0.000175419
0.000174398
0.000168399
0.000158864
8.7762e-07
3.11562e-06
5.73499e-06
9.01827e-06
1.36678e-05
1.98097e-05
2.68407e-05
3.27808e-05
3.67869e-05
4.59441e-05
5.41924e-05
6.1408e-05
6.75689e-05
7.29912e-05
7.77447e-05
8.1915e-05
8.54188e-05
8.85334e-05
9.12376e-05
9.36535e-05
9.5791e-05
9.77205e-05
9.95025e-05
0.000101199
0.000102809
0.000104405
0.000105921
0.000107393
0.00010885
0.00011028
0.000114897
0.000120218
0.000125351
0.000130299
0.000135077
0.000139708
0.000144186
0.000148521
0.000152667
0.000156646
0.000160461
0.000163978
0.000167316
0.000170235
0.000172848
0.000174908
0.00017516
0.000172735
0.000164662
0.000151158
5.34688e-07
1.90308e-06
3.55282e-06
5.66472e-06
8.32775e-06
1.18692e-05
1.64987e-05
2.24223e-05
2.94579e-05
3.677e-05
4.32507e-05
4.79202e-05
5.10462e-05
5.84436e-05
6.5098e-05
7.10412e-05
7.62906e-05
8.09624e-05
8.5149e-05
8.90423e-05
9.24174e-05
9.54368e-05
9.8159e-05
0.000100629
0.000102948
0.0001051
0.000107127
0.00010907
0.000113605
0.000118872
0.00012397
0.000128837
0.000133509
0.000137991
0.000142291
0.000146421
0.000150348
0.000154106
0.000157618
0.000160858
0.000163909
0.000166671
0.000169111
0.000171175
0.000172719
0.000173365
0.000172368
0.000168363
0.00015829
0.000141458
3.63009e-07
1.2721e-06
2.37197e-06
3.71953e-06
5.41924e-06
7.58987e-06
1.01313e-05
1.34745e-05
1.76105e-05
2.27531e-05
2.88419e-05
3.57279e-05
4.32004e-05
5.06545e-05
5.75266e-05
6.35247e-05
6.86593e-05
7.32197e-05
7.73128e-05
8.13022e-05
8.52012e-05
8.92234e-05
9.33425e-05
9.77506e-05
0.000102258
0.00010698
0.000111801
0.000116657
0.000121428
0.000126146
0.000130614
0.00013492
0.000139034
0.000142896
0.000146577
0.000150054
0.000153284
0.000156332
0.000159141
0.000161669
0.000163983
0.000165923
0.000167437
0.00016853
0.00016892
0.000168204
0.000166106
0.000160123
0.000148856
0.000129325
2.61051e-07
8.98533e-07
1.66392e-06
2.57972e-06
3.68539e-06
5.03666e-06
6.70672e-06
8.70662e-06
1.09871e-05
1.38282e-05
1.71813e-05
2.10273e-05
2.56989e-05
3.11859e-05
3.74564e-05
4.44175e-05
5.18011e-05
5.93057e-05
6.66241e-05
7.35277e-05
7.99538e-05
8.58085e-05
9.14051e-05
9.67588e-05
0.000101929
0.000106946
0.000111837
0.00011666
0.000121393
0.000125884
0.000130095
0.000134145
0.00013787
0.000141386
0.000144612
0.000147583
0.00015031
0.000152794
0.000154976
0.000156877
0.000158521
0.000159713
0.000160486
0.000160763
0.000160169
0.00015842
0.000155216
0.00014765
0.000136052
0.000114162
1.92492e-07
6.53094e-07
1.20047e-06
1.84613e-06
2.60739e-06
3.50769e-06
4.57673e-06
5.85095e-06
7.37502e-06
9.13962e-06
1.09428e-05
1.30815e-05
1.56207e-05
1.85781e-05
2.19297e-05
2.58721e-05
3.03869e-05
3.55697e-05
4.12334e-05
4.73919e-05
5.39938e-05
6.09061e-05
6.7951e-05
7.49616e-05
8.17618e-05
8.83838e-05
9.47823e-05
0.000100916
0.000106767
0.000112165
0.000117069
0.000121574
0.000125694
0.000129401
0.000132724
0.000135742
0.000138393
0.000140713
0.000142751
0.000144443
0.000145789
0.000146603
0.00014695
0.000146747
0.000145603
0.000143219
0.000138958
0.000130986
0.000118929
9.54314e-05
1.42433e-07
4.78736e-07
8.75313e-07
1.33934e-06
1.87993e-06
2.5085e-06
3.2388e-06
4.0868e-06
5.06012e-06
6.14592e-06
7.39288e-06
8.82515e-06
1.03514e-05
1.19994e-05
1.38918e-05
1.60584e-05
1.85377e-05
2.11427e-05
2.40431e-05
2.73846e-05
3.11818e-05
3.55023e-05
4.03591e-05
4.57439e-05
5.15515e-05
5.7735e-05
6.41548e-05
7.06492e-05
7.70805e-05
8.32557e-05
8.90476e-05
9.43849e-05
9.9333e-05
0.00010389
0.000108052
0.000111847
0.000115229
0.000118203
0.000120814
0.000122897
0.000124553
0.000125663
0.000126202
0.000125822
0.000124574
0.000122132
0.000117484
0.000109512
9.70713e-05
7.34283e-05
1.03933e-07
3.4787e-07
6.34855e-07
9.69981e-07
1.35902e-06
1.80841e-06
2.32542e-06
2.90299e-06
3.55065e-06
4.27992e-06
5.09962e-06
6.01963e-06
7.05193e-06
8.2097e-06
9.50807e-06
1.0865e-05
1.22257e-05
1.3639e-05
1.523e-05
1.70244e-05
1.9045e-05
2.13067e-05
2.38887e-05
2.68393e-05
3.01931e-05
3.39848e-05
3.81666e-05
4.27589e-05
4.76619e-05
5.26573e-05
5.77198e-05
6.27323e-05
6.76675e-05
7.24276e-05
7.69989e-05
8.12892e-05
8.53087e-05
8.8902e-05
9.21545e-05
9.49401e-05
9.72604e-05
9.88454e-05
9.97384e-05
9.96207e-05
9.84501e-05
9.6161e-05
9.16473e-05
8.37722e-05
7.12813e-05
4.92679e-05
7.32948e-08
2.45854e-07
4.50098e-07
6.90082e-07
9.67487e-07
1.28472e-06
1.64545e-06
2.05275e-06
2.50971e-06
3.01975e-06
3.58679e-06
4.21494e-06
4.9092e-06
5.67522e-06
6.51951e-06
7.42166e-06
8.3214e-06
9.30075e-06
1.03721e-05
1.14169e-05
1.25759e-05
1.38773e-05
1.53484e-05
1.70197e-05
1.89235e-05
2.09535e-05
2.32665e-05
2.5873e-05
2.87819e-05
3.20418e-05
3.55384e-05
3.91864e-05
4.29879e-05
4.68373e-05
5.06947e-05
5.44847e-05
5.81232e-05
6.15115e-05
6.46292e-05
6.73551e-05
6.96629e-05
7.14275e-05
7.25414e-05
7.23507e-05
7.11858e-05
6.86905e-05
6.38e-05
5.5491e-05
4.38093e-05
2.65259e-05
4.78144e-08
1.62519e-07
3.00735e-07
4.65321e-07
6.58548e-07
8.82284e-07
1.13816e-06
1.4277e-06
1.75243e-06
2.11377e-06
2.51368e-06
2.95419e-06
3.43717e-06
3.96527e-06
4.50745e-06
5.05797e-06
5.64717e-06
6.27991e-06
6.96292e-06
7.70554e-06
8.51822e-06
9.41595e-06
1.04196e-05
1.13303e-05
1.23783e-05
1.36052e-05
1.50245e-05
1.66498e-05
1.84898e-05
2.05975e-05
2.29466e-05
2.54392e-05
2.80258e-05
3.06907e-05
3.33748e-05
3.59938e-05
3.84937e-05
4.08369e-05
4.29541e-05
4.47297e-05
4.61405e-05
4.70583e-05
4.72927e-05
4.68821e-05
4.522e-05
4.19751e-05
3.65835e-05
2.93935e-05
2.05493e-05
1.09691e-05
2.65794e-08
9.51509e-08
1.82533e-07
2.90583e-07
4.20626e-07
5.73602e-07
7.50447e-07
9.51959e-07
1.17878e-06
1.43165e-06
1.71142e-06
2.01928e-06
2.33923e-06
2.66823e-06
3.01747e-06
3.38778e-06
3.78095e-06
4.19956e-06
4.64764e-06
5.13028e-06
5.65403e-06
6.16232e-06
6.706e-06
7.32078e-06
8.02985e-06
8.85989e-06
9.82616e-06
1.09173e-05
1.21689e-05
1.35799e-05
1.51293e-05
1.67669e-05
1.84425e-05
2.01462e-05
2.18209e-05
2.33867e-05
2.4794e-05
2.59928e-05
2.6939e-05
2.755e-05
2.77673e-05
2.76666e-05
2.70438e-05
2.56732e-05
2.34049e-05
2.02311e-05
1.61633e-05
1.17153e-05
6.99084e-06
3.2612e-06
9.14222e-09
4.07502e-08
8.96248e-08
1.53671e-07
2.33279e-07
3.29071e-07
4.42127e-07
5.729e-07
7.16841e-07
8.74121e-07
1.04642e-06
1.23351e-06
1.43515e-06
1.65081e-06
1.87935e-06
2.12014e-06
2.37371e-06
2.64144e-06
2.91029e-06
3.17102e-06
3.44728e-06
3.74605e-06
4.07637e-06
4.45397e-06
4.89673e-06
5.42274e-06
6.0511e-06
6.78993e-06
7.62231e-06
8.54045e-06
9.52908e-06
1.05572e-05
1.15708e-05
1.25315e-05
1.3404e-05
1.41388e-05
1.46941e-05
1.50302e-05
1.51462e-05
1.50665e-05
1.46033e-05
1.37758e-05
1.26315e-05
1.11819e-05
9.34018e-06
7.16416e-06
4.96405e-06
3.09694e-06
1.66348e-06
7.22835e-07
3.86567e-10
7.88477e-09
2.23971e-08
4.44953e-08
7.4624e-08
1.13171e-07
1.60616e-07
2.16091e-07
2.79856e-07
3.5238e-07
4.33464e-07
5.22696e-07
6.19391e-07
7.22384e-07
8.28868e-07
9.39272e-07
1.05285e-06
1.16886e-06
1.28803e-06
1.41621e-06
1.55559e-06
1.70965e-06
1.88349e-06
2.08314e-06
2.31448e-06
2.58202e-06
2.88741e-06
3.22713e-06
3.59333e-06
3.97471e-06
4.35793e-06
4.72116e-06
5.03976e-06
5.29207e-06
5.45832e-06
5.52172e-06
5.47073e-06
5.3014e-06
5.00999e-06
4.61195e-06
4.11434e-06
3.55195e-06
2.94433e-06
2.33295e-06
1.75249e-06
1.23497e-06
7.98046e-07
4.7694e-07
2.61724e-07
1.05664e-07
)
;

boundaryField
{
    AXIS
    {
        type            empty;
    }
    OUTLET
    {
        type            calculated;
        value           nonuniform List<scalar> 
25
(
0.000177553
0.000177783
0.000178263
0.000178774
0.000179132
0.000179031
0.000178368
0.0001769
0.000175055
0.000172399
0.000169033
0.000164663
0.000158864
0.000151158
0.000141458
0.000129325
0.000114162
9.54314e-05
7.34283e-05
4.92679e-05
2.65259e-05
1.09691e-05
3.2612e-06
7.22835e-07
1.05664e-07
)
;
    }
    COFLOW
    {
        type            calculated;
        value           uniform 0;
    }
    PILOT
    {
        type            calculated;
        value           uniform 0.000300118;
    }
    FUEL
    {
        type            calculated;
        value           uniform 0;
    }
    WALL
    {
        type            calculated;
        value           nonuniform List<scalar> 
50
(
3.86567e-10
7.88477e-09
2.23971e-08
4.44953e-08
7.4624e-08
1.13171e-07
1.60616e-07
2.16091e-07
2.79856e-07
3.5238e-07
4.33464e-07
5.22696e-07
6.19391e-07
7.22384e-07
8.28868e-07
9.39272e-07
1.05285e-06
1.16886e-06
1.28803e-06
1.41621e-06
1.55559e-06
1.70965e-06
1.88349e-06
2.08314e-06
2.31448e-06
2.58202e-06
2.88741e-06
3.22713e-06
3.59333e-06
3.97471e-06
4.35793e-06
4.72116e-06
5.03976e-06
5.29207e-06
5.45832e-06
5.52172e-06
5.47073e-06
5.3014e-06
5.00999e-06
4.61195e-06
4.11434e-06
3.55195e-06
2.94433e-06
2.33295e-06
1.75249e-06
1.23497e-06
7.98046e-07
4.7694e-07
2.61724e-07
1.05664e-07
)
;
    }
    front
    {
        type            wedge;
    }
    back
    {
        type            wedge;
    }
}


// ************************************************************************* //
