/*--------------------------------*- C++ -*----------------------------------*\
| =========                 |                                                 |
| \\      /  F ield         | OpenFOAM: The Open Source CFD Toolbox           |
|  \\    /   O peration     | Version:  2.4.x                                 |
|   \\  /    A nd           | Web:      www.OpenFOAM.org                      |
|    \\/     M anipulation  |                                                 |
\*---------------------------------------------------------------------------*/
FoamFile
{
    version     2.0;
    format      ascii;
    class       volScalarField;
    location    "0.1";
    object      NO2;
}
// * * * * * * * * * * * * * * * * * * * * * * * * * * * * * * * * * * * * * //

dimensions      [0 0 0 0 0 0 0];

internalField   nonuniform List<scalar> 
1250
(
2.00107e-08
7.43713e-08
1.42604e-07
2.2831e-07
3.44733e-07
4.99345e-07
6.95401e-07
9.30308e-07
1.17734e-06
1.35163e-06
1.53697e-06
1.73819e-06
1.93371e-06
2.11499e-06
2.27701e-06
2.4232e-06
2.55628e-06
2.67837e-06
2.76909e-06
2.83274e-06
2.86739e-06
2.87805e-06
2.86339e-06
2.81399e-06
2.67853e-06
2.48947e-06
2.29437e-06
2.09484e-06
1.89797e-06
1.70571e-06
1.521e-06
1.34483e-06
1.17541e-06
1.01312e-06
8.67006e-07
7.37645e-07
6.2435e-07
5.25281e-07
4.40239e-07
3.68307e-07
3.07637e-07
2.57022e-07
2.15644e-07
1.83132e-07
1.57523e-07
1.36934e-07
1.26665e-07
1.31254e-07
1.64827e-07
3.31672e-07
2.37152e-08
8.43398e-08
1.59286e-07
2.57028e-07
3.91949e-07
5.69979e-07
7.92075e-07
1.04796e-06
1.23663e-06
1.41339e-06
1.59963e-06
1.79918e-06
1.99232e-06
2.16689e-06
2.32419e-06
2.46213e-06
2.58925e-06
2.70254e-06
2.78632e-06
2.8418e-06
2.87092e-06
2.87484e-06
2.8548e-06
2.80042e-06
2.68631e-06
2.49266e-06
2.29259e-06
2.09071e-06
1.8917e-06
1.69858e-06
1.51321e-06
1.33709e-06
1.16953e-06
1.00772e-06
8.62333e-07
7.33812e-07
6.21236e-07
5.22973e-07
4.38807e-07
3.67611e-07
3.07541e-07
2.57586e-07
2.1668e-07
1.84599e-07
1.59272e-07
1.39026e-07
1.28996e-07
1.34101e-07
1.69025e-07
3.40549e-07
3.5657e-08
1.14234e-07
2.11611e-07
3.51148e-07
5.44545e-07
7.86879e-07
1.02854e-06
1.20425e-06
1.38385e-06
1.55872e-06
1.74683e-06
1.94065e-06
2.12068e-06
2.28278e-06
2.42544e-06
2.54691e-06
2.65879e-06
2.75329e-06
2.81972e-06
2.85943e-06
2.87424e-06
2.86476e-06
2.83356e-06
2.76746e-06
2.6754e-06
2.49466e-06
2.28584e-06
2.07841e-06
1.87575e-06
1.68054e-06
1.49422e-06
1.31807e-06
1.15367e-06
9.93956e-07
8.50644e-07
7.24312e-07
6.13389e-07
5.17278e-07
4.35013e-07
3.65571e-07
3.06589e-07
2.58123e-07
2.18384e-07
1.87338e-07
1.62722e-07
1.43402e-07
1.34664e-07
1.41001e-07
1.79431e-07
3.60477e-07
7.35446e-08
1.94372e-07
3.77346e-07
6.46777e-07
9.19152e-07
1.10029e-06
1.28341e-06
1.46452e-06
1.63956e-06
1.80653e-06
1.98784e-06
2.16107e-06
2.31732e-06
2.45553e-06
2.57161e-06
2.66616e-06
2.75293e-06
2.81913e-06
2.85994e-06
2.87642e-06
2.86941e-06
2.84167e-06
2.79275e-06
2.71157e-06
2.60727e-06
2.48695e-06
2.26838e-06
2.05399e-06
1.84739e-06
1.65005e-06
1.46323e-06
1.28865e-06
1.12559e-06
9.72086e-07
8.32158e-07
7.08678e-07
6.00903e-07
5.08022e-07
4.28744e-07
3.61621e-07
3.04931e-07
2.58707e-07
2.21e-07
1.91608e-07
1.68348e-07
1.50732e-07
1.43321e-07
1.51335e-07
1.951e-07
3.9305e-07
2.38921e-07
5.7715e-07
9.83576e-07
1.17922e-06
1.36903e-06
1.5502e-06
1.7168e-06
1.88067e-06
2.02977e-06
2.16641e-06
2.31788e-06
2.45286e-06
2.56901e-06
2.66526e-06
2.74198e-06
2.80028e-06
2.85158e-06
2.88289e-06
2.89021e-06
2.87747e-06
2.84396e-06
2.79262e-06
2.72507e-06
2.62791e-06
2.51071e-06
2.38135e-06
2.23231e-06
2.01188e-06
1.80207e-06
1.60422e-06
1.41895e-06
1.24613e-06
1.08638e-06
9.40123e-07
8.04827e-07
6.86031e-07
5.83182e-07
4.94901e-07
4.19427e-07
3.55649e-07
3.02517e-07
2.59309e-07
2.24246e-07
1.9702e-07
1.75735e-07
1.60566e-07
1.55979e-07
1.65567e-07
2.17504e-07
4.39727e-07
2.42596e-06
1.96059e-06
1.68235e-06
1.66264e-06
1.72379e-06
1.81754e-06
1.94093e-06
2.08057e-06
2.22412e-06
2.37043e-06
2.52834e-06
2.68021e-06
2.82379e-06
2.87975e-06
2.90837e-06
2.92327e-06
2.93156e-06
2.91973e-06
2.89049e-06
2.84551e-06
2.78432e-06
2.70973e-06
2.62291e-06
2.51274e-06
2.38428e-06
2.24882e-06
2.10807e-06
1.94584e-06
1.73591e-06
1.53973e-06
1.35846e-06
1.19133e-06
1.0375e-06
8.96443e-07
7.68271e-07
6.56165e-07
5.59947e-07
4.77186e-07
4.06985e-07
3.48336e-07
2.99726e-07
2.6027e-07
2.28355e-07
2.04178e-07
1.85533e-07
1.73899e-07
1.72568e-07
1.85443e-07
2.48396e-07
5.04815e-07
2.22123e-06
2.24071e-06
1.88687e-06
1.82191e-06
1.85465e-06
1.939e-06
2.06067e-06
2.19335e-06
2.33112e-06
2.4651e-06
2.59458e-06
2.71911e-06
2.8356e-06
2.94319e-06
3.02839e-06
2.99935e-06
2.95946e-06
2.90659e-06
2.84198e-06
2.76672e-06
2.68086e-06
2.58648e-06
2.48424e-06
2.36553e-06
2.22991e-06
2.09116e-06
1.95085e-06
1.81026e-06
1.64676e-06
1.4574e-06
1.28332e-06
1.12341e-06
9.77378e-07
8.44693e-07
7.25191e-07
6.20196e-07
5.3153e-07
4.5607e-07
3.92564e-07
3.39888e-07
2.96537e-07
2.61688e-07
2.34003e-07
2.13732e-07
1.9892e-07
1.91586e-07
1.94636e-07
2.11345e-07
2.88812e-07
5.90118e-07
1.10684e-06
2.34971e-06
1.95723e-06
1.87834e-06
1.90401e-06
1.98678e-06
2.10557e-06
2.23513e-06
2.36825e-06
2.47902e-06
2.58139e-06
2.67958e-06
2.77145e-06
2.85552e-06
2.9309e-06
2.99078e-06
2.91323e-06
2.82596e-06
2.73265e-06
2.63399e-06
2.53042e-06
2.42212e-06
2.30944e-06
2.18853e-06
2.05156e-06
1.91497e-06
1.77923e-06
1.64532e-06
1.51382e-06
1.35652e-06
1.19417e-06
1.04629e-06
9.11494e-07
7.89115e-07
6.79322e-07
5.80642e-07
4.99341e-07
4.331e-07
3.77933e-07
3.322e-07
2.94837e-07
2.65178e-07
2.42603e-07
2.27433e-07
2.16861e-07
2.15431e-07
2.22866e-07
2.47128e-07
3.41936e-07
7.05777e-07
1.78844e-06
2.41386e-06
2.04876e-06
1.94668e-06
1.9618e-06
2.02161e-06
2.12289e-06
2.24076e-06
2.35555e-06
2.42856e-06
2.50241e-06
2.57421e-06
2.64216e-06
2.70462e-06
2.76038e-06
2.79302e-06
2.77885e-06
2.67142e-06
2.5615e-06
2.45027e-06
2.33761e-06
2.22308e-06
2.1069e-06
1.98888e-06
1.85626e-06
1.72722e-06
1.60068e-06
1.47823e-06
1.35835e-06
1.24255e-06
1.09767e-06
9.63648e-07
8.42859e-07
7.33308e-07
6.35538e-07
5.4786e-07
4.69368e-07
4.10818e-07
3.64462e-07
3.26418e-07
2.96072e-07
2.73403e-07
2.57359e-07
2.48143e-07
2.42859e-07
2.48012e-07
2.62988e-07
2.94667e-07
4.1279e-07
8.56774e-07
3.94571e-06
1.97942e-06
1.93218e-06
2.00082e-06
2.03837e-06
2.08965e-06
2.15909e-06
2.2525e-06
2.31404e-06
2.35475e-06
2.39828e-06
2.44072e-06
2.47209e-06
2.49468e-06
2.51884e-06
2.5262e-06
2.52548e-06
2.42996e-06
2.32092e-06
2.21325e-06
2.10574e-06
1.99746e-06
1.88896e-06
1.77907e-06
1.66e-06
1.54251e-06
1.42823e-06
1.31915e-06
1.21328e-06
1.11137e-06
1.00153e-06
8.84767e-07
7.79067e-07
6.84082e-07
5.98381e-07
5.22542e-07
4.54707e-07
3.95753e-07
3.56378e-07
3.27252e-07
3.05211e-07
2.90196e-07
2.80849e-07
2.77575e-07
2.79256e-07
2.92966e-07
3.14314e-07
3.58117e-07
5.03919e-07
1.03065e-06
1.08301e-06
1.05232e-06
1.29089e-06
1.75884e-06
2.02959e-06
2.14531e-06
2.22258e-06
2.29668e-06
2.28994e-06
2.29373e-06
2.30725e-06
2.33294e-06
2.35623e-06
2.3786e-06
2.39326e-06
2.35919e-06
2.32982e-06
2.2288e-06
2.1164e-06
2.00613e-06
1.89757e-06
1.78967e-06
1.68421e-06
1.57967e-06
1.47451e-06
1.37209e-06
1.27411e-06
1.17951e-06
1.08803e-06
1.00041e-06
9.14927e-07
8.15585e-07
7.26924e-07
6.4607e-07
5.7435e-07
5.10078e-07
4.54427e-07
4.05406e-07
3.65254e-07
3.40908e-07
3.26956e-07
3.20127e-07
3.19244e-07
3.23598e-07
3.3212e-07
3.56917e-07
3.87973e-07
4.44485e-07
6.43696e-07
1.23056e-06
2.27595e-07
4.87141e-07
6.9701e-07
1.10125e-06
1.58461e-06
1.99861e-06
2.23178e-06
2.29908e-06
2.30577e-06
2.29217e-06
2.2727e-06
2.25668e-06
2.24278e-06
2.23434e-06
2.2088e-06
2.16331e-06
2.09781e-06
1.99917e-06
1.8981e-06
1.79732e-06
1.69813e-06
1.59995e-06
1.50398e-06
1.41e-06
1.31889e-06
1.23261e-06
1.14952e-06
1.06957e-06
9.92679e-07
9.18584e-07
8.4699e-07
7.69152e-07
6.97359e-07
6.3208e-07
5.74172e-07
5.2329e-07
4.78387e-07
4.41852e-07
4.11031e-07
3.87701e-07
3.74412e-07
3.75382e-07
3.84488e-07
3.98373e-07
4.16535e-07
4.52565e-07
4.95434e-07
5.72083e-07
8.32177e-07
1.46897e-06
7.5388e-08
2.33035e-07
3.76381e-07
6.04136e-07
9.47278e-07
1.38068e-06
1.8091e-06
2.11194e-06
2.27837e-06
2.34449e-06
2.35032e-06
2.32335e-06
2.28751e-06
2.24627e-06
2.14509e-06
2.04354e-06
1.94509e-06
1.84911e-06
1.75603e-06
1.66434e-06
1.57569e-06
1.48921e-06
1.40588e-06
1.32405e-06
1.2449e-06
1.16947e-06
1.09691e-06
1.02715e-06
9.60191e-07
8.95908e-07
8.34141e-07
7.71766e-07
7.14893e-07
6.64153e-07
6.19648e-07
5.80407e-07
5.47596e-07
5.22329e-07
5.0254e-07
4.90067e-07
4.83405e-07
4.85034e-07
4.97852e-07
5.22649e-07
5.54042e-07
6.0561e-07
6.61447e-07
7.75802e-07
1.08011e-06
1.7597e-06
3.56818e-08
1.22724e-07
2.21447e-07
3.47208e-07
5.32076e-07
8.03963e-07
1.16979e-06
1.57702e-06
1.93305e-06
2.19092e-06
2.33421e-06
2.39358e-06
2.39715e-06
2.33549e-06
2.25046e-06
2.15212e-06
2.05155e-06
1.94882e-06
1.84887e-06
1.75172e-06
1.65923e-06
1.57133e-06
1.48635e-06
1.40437e-06
1.32697e-06
1.25004e-06
1.17696e-06
1.10754e-06
1.04152e-06
9.79088e-07
9.21881e-07
8.70148e-07
8.23715e-07
7.82304e-07
7.47912e-07
7.18738e-07
6.95789e-07
6.78824e-07
6.69426e-07
6.66471e-07
6.71084e-07
6.84835e-07
7.0816e-07
7.39966e-07
7.81791e-07
8.48713e-07
9.24357e-07
1.07398e-06
1.40678e-06
2.10315e-06
2.12318e-08
7.47054e-08
1.37936e-07
2.21039e-07
3.29269e-07
4.79559e-07
6.82326e-07
9.50659e-07
1.28305e-06
1.64123e-06
1.97832e-06
2.24858e-06
2.41911e-06
2.50822e-06
2.5222e-06
2.48583e-06
2.41677e-06
2.32825e-06
2.23061e-06
2.13195e-06
2.0334e-06
1.9356e-06
1.84085e-06
1.75045e-06
1.65063e-06
1.55404e-06
1.46446e-06
1.38017e-06
1.30813e-06
1.24333e-06
1.18376e-06
1.13097e-06
1.08506e-06
1.04539e-06
1.01413e-06
9.87968e-07
9.69826e-07
9.58932e-07
9.56403e-07
9.62674e-07
9.76212e-07
9.98872e-07
1.03324e-06
1.07562e-06
1.13109e-06
1.21021e-06
1.29777e-06
1.4776e-06
1.81873e-06
2.48809e-06
1.44673e-08
5.06193e-08
9.44297e-08
1.49248e-07
2.2094e-07
3.15976e-07
4.2744e-07
5.78643e-07
7.65402e-07
9.98795e-07
1.28273e-06
1.62167e-06
1.9662e-06
2.27791e-06
2.52147e-06
2.68147e-06
2.76501e-06
2.78956e-06
2.76326e-06
2.71025e-06
2.63611e-06
2.55186e-06
2.46268e-06
2.3533e-06
2.24319e-06
2.13786e-06
2.03699e-06
1.9421e-06
1.85211e-06
1.76881e-06
1.6939e-06
1.62639e-06
1.5684e-06
1.52043e-06
1.48235e-06
1.45251e-06
1.43354e-06
1.42185e-06
1.41924e-06
1.42724e-06
1.44273e-06
1.46964e-06
1.50861e-06
1.55765e-06
1.61873e-06
1.70257e-06
1.79928e-06
1.99448e-06
2.30235e-06
2.88425e-06
1.06172e-08
3.66131e-08
6.80977e-08
1.0648e-07
1.54101e-07
2.14143e-07
2.90686e-07
3.83754e-07
4.88807e-07
6.21872e-07
7.97355e-07
1.00143e-06
1.24731e-06
1.52665e-06
1.82531e-06
2.13092e-06
2.41752e-06
2.66574e-06
2.86314e-06
3.00204e-06
3.09343e-06
3.12637e-06
3.12137e-06
3.08148e-06
3.01806e-06
2.93744e-06
2.84678e-06
2.75098e-06
2.6537e-06
2.5588e-06
2.46868e-06
2.38588e-06
2.31372e-06
2.25117e-06
2.20019e-06
2.15949e-06
2.12978e-06
2.10943e-06
2.09997e-06
2.10058e-06
2.1088e-06
2.13021e-06
2.16082e-06
2.20197e-06
2.25426e-06
2.32617e-06
2.41518e-06
2.58302e-06
2.82234e-06
3.21517e-06
8.04592e-09
2.73675e-08
5.05511e-08
7.83382e-08
1.11809e-07
1.52373e-07
2.01764e-07
2.62055e-07
3.35748e-07
4.26522e-07
5.27939e-07
6.50698e-07
7.98918e-07
9.71017e-07
1.15672e-06
1.37525e-06
1.60718e-06
1.86596e-06
2.15335e-06
2.44664e-06
2.72217e-06
2.96643e-06
3.17305e-06
3.33113e-06
3.43376e-06
3.49717e-06
3.5244e-06
3.51554e-06
3.48777e-06
3.43694e-06
3.37388e-06
3.30805e-06
3.24259e-06
3.17973e-06
3.12122e-06
3.07037e-06
3.02667e-06
2.99124e-06
2.96467e-06
2.94715e-06
2.93689e-06
2.93742e-06
2.9441e-06
2.95902e-06
2.9833e-06
3.02109e-06
3.0688e-06
3.15467e-06
3.27707e-06
3.35588e-06
6.1277e-09
2.06424e-08
3.79029e-08
5.83642e-08
8.26075e-08
1.11347e-07
1.45427e-07
1.85805e-07
2.34592e-07
2.96165e-07
3.69975e-07
4.57959e-07
5.5222e-07
6.5333e-07
7.7044e-07
9.05558e-07
1.06125e-06
1.23484e-06
1.43738e-06
1.66927e-06
1.9096e-06
2.17654e-06
2.44711e-06
2.732e-06
2.9903e-06
3.23113e-06
3.44313e-06
3.61648e-06
3.75281e-06
3.84719e-06
3.90226e-06
3.92482e-06
3.93253e-06
3.92834e-06
3.90525e-06
3.87809e-06
3.84671e-06
3.8155e-06
3.7872e-06
3.75502e-06
3.72591e-06
3.70078e-06
3.67712e-06
3.65605e-06
3.63527e-06
3.61497e-06
3.58667e-06
3.55542e-06
3.49858e-06
3.16751e-06
4.59713e-09
1.54147e-08
2.82277e-08
4.33458e-08
6.11307e-08
8.1992e-08
1.06393e-07
1.36172e-07
1.71803e-07
2.13764e-07
2.62899e-07
3.20116e-07
3.86427e-07
4.62921e-07
5.50809e-07
6.41768e-07
7.39577e-07
8.5869e-07
9.94166e-07
1.14818e-06
1.32301e-06
1.5041e-06
1.70384e-06
1.92966e-06
2.17177e-06
2.41963e-06
2.68834e-06
2.93972e-06
3.20202e-06
3.43783e-06
3.65426e-06
3.8043e-06
3.93685e-06
4.0251e-06
4.10121e-06
4.14486e-06
4.18289e-06
4.17936e-06
4.17322e-06
4.15709e-06
4.1297e-06
4.09995e-06
4.06221e-06
4.01196e-06
3.94712e-06
3.86605e-06
3.74755e-06
3.58217e-06
3.26832e-06
2.5445e-06
3.32642e-09
1.11739e-08
2.05126e-08
3.15761e-08
4.48194e-08
6.06472e-08
7.93677e-08
1.01384e-07
1.27117e-07
1.57002e-07
1.91504e-07
2.31096e-07
2.76291e-07
3.27637e-07
3.85732e-07
4.53189e-07
5.35431e-07
6.28887e-07
7.35038e-07
8.36531e-07
9.49889e-07
1.07794e-06
1.22308e-06
1.38788e-06
1.5748e-06
1.79801e-06
2.03143e-06
2.2854e-06
2.55861e-06
2.81189e-06
3.05653e-06
3.29329e-06
3.47831e-06
3.65363e-06
3.79642e-06
3.90323e-06
3.99754e-06
4.03854e-06
4.06212e-06
4.07027e-06
4.04573e-06
3.99798e-06
3.92539e-06
3.84625e-06
3.74382e-06
3.60158e-06
3.38709e-06
3.0175e-06
2.46385e-06
1.61732e-06
2.28522e-09
7.79543e-09
1.45254e-08
2.27029e-08
3.2551e-08
4.42948e-08
5.81653e-08
7.44024e-08
9.32549e-08
1.14969e-07
1.39826e-07
1.68109e-07
2.00087e-07
2.36076e-07
2.78651e-07
3.28858e-07
3.85599e-07
4.4965e-07
5.21995e-07
6.03889e-07
6.96785e-07
8.02591e-07
9.23799e-07
1.05359e-06
1.20308e-06
1.37531e-06
1.56899e-06
1.78298e-06
2.015e-06
2.24381e-06
2.46073e-06
2.67262e-06
2.87632e-06
3.04676e-06
3.18651e-06
3.30927e-06
3.41201e-06
3.4693e-06
3.49692e-06
3.49629e-06
3.46602e-06
3.39905e-06
3.28203e-06
3.13773e-06
2.98635e-06
2.75475e-06
2.39287e-06
1.92115e-06
1.36659e-06
7.66333e-07
1.35671e-09
4.87547e-09
9.42009e-09
1.51461e-08
2.21952e-08
3.07e-08
4.08034e-08
5.26479e-08
6.63728e-08
8.21286e-08
1.00077e-07
1.20398e-07
1.4436e-07
1.72401e-07
2.0407e-07
2.39706e-07
2.79749e-07
3.24751e-07
3.75435e-07
4.32658e-07
4.97423e-07
5.76734e-07
6.69778e-07
7.77861e-07
9.03697e-07
1.04986e-06
1.21437e-06
1.37372e-06
1.54544e-06
1.72562e-06
1.9074e-06
2.08373e-06
2.24941e-06
2.38493e-06
2.48976e-06
2.57201e-06
2.62812e-06
2.65503e-06
2.65046e-06
2.60812e-06
2.5243e-06
2.41644e-06
2.26791e-06
2.06249e-06
1.83001e-06
1.56115e-06
1.22186e-06
8.79357e-07
5.17924e-07
2.40287e-07
4.99878e-10
2.2396e-09
4.98178e-09
8.65589e-09
1.33297e-08
1.90872e-08
2.6041e-08
3.42692e-08
4.41789e-08
5.59041e-08
6.94742e-08
8.50449e-08
1.02775e-07
1.22793e-07
1.45184e-07
1.70115e-07
1.97893e-07
2.28912e-07
2.65007e-07
3.08011e-07
3.56894e-07
4.12375e-07
4.76848e-07
5.51832e-07
6.39143e-07
7.41682e-07
8.54889e-07
9.75843e-07
1.10626e-06
1.24309e-06
1.37946e-06
1.49664e-06
1.60222e-06
1.69093e-06
1.75253e-06
1.78816e-06
1.79458e-06
1.76905e-06
1.71642e-06
1.64655e-06
1.53467e-06
1.38934e-06
1.2162e-06
1.03322e-06
8.27082e-07
6.12424e-07
4.11346e-07
2.502e-07
1.32568e-07
5.7168e-08
2.26957e-11
4.80507e-10
1.53461e-09
3.37987e-09
6.04043e-09
9.59473e-09
1.41049e-08
1.97844e-08
2.67704e-08
3.51396e-08
4.49963e-08
5.64263e-08
6.94738e-08
8.40738e-08
9.98844e-08
1.17274e-07
1.36445e-07
1.57491e-07
1.80414e-07
2.04314e-07
2.31123e-07
2.61505e-07
2.96309e-07
3.36353e-07
3.82268e-07
4.34295e-07
4.91902e-07
5.53702e-07
6.17883e-07
6.81996e-07
7.43263e-07
7.97926e-07
8.41984e-07
8.71996e-07
8.85089e-07
8.79216e-07
8.53478e-07
8.08479e-07
7.45076e-07
6.675e-07
5.78035e-07
4.78287e-07
3.78069e-07
2.85445e-07
2.04389e-07
1.37687e-07
8.59736e-08
5.01764e-08
2.79209e-08
9.78201e-09
)
;

boundaryField
{
    AXIS
    {
        type            empty;
    }
    OUTLET
    {
        type            calculated;
        value           nonuniform List<scalar> 
25
(
3.31672e-07
3.40549e-07
3.60477e-07
3.9305e-07
4.39727e-07
5.04815e-07
5.90118e-07
7.05777e-07
8.56774e-07
1.03065e-06
1.23056e-06
1.46897e-06
1.7597e-06
2.10315e-06
2.48809e-06
2.88425e-06
3.21517e-06
3.35588e-06
3.16751e-06
2.5445e-06
1.61732e-06
7.66333e-07
2.40287e-07
5.7168e-08
9.78201e-09
)
;
    }
    COFLOW
    {
        type            calculated;
        value           uniform 0;
    }
    PILOT
    {
        type            calculated;
        value           uniform 1.87745e-07;
    }
    FUEL
    {
        type            calculated;
        value           uniform 0;
    }
    WALL
    {
        type            calculated;
        value           nonuniform List<scalar> 
50
(
2.26957e-11
4.80507e-10
1.53461e-09
3.37987e-09
6.04043e-09
9.59473e-09
1.41049e-08
1.97844e-08
2.67704e-08
3.51396e-08
4.49963e-08
5.64263e-08
6.94738e-08
8.40738e-08
9.98844e-08
1.17274e-07
1.36445e-07
1.57491e-07
1.80414e-07
2.04314e-07
2.31123e-07
2.61505e-07
2.96309e-07
3.36353e-07
3.82268e-07
4.34295e-07
4.91902e-07
5.53702e-07
6.17883e-07
6.81996e-07
7.43263e-07
7.97926e-07
8.41984e-07
8.71996e-07
8.85089e-07
8.79216e-07
8.53478e-07
8.08479e-07
7.45076e-07
6.675e-07
5.78035e-07
4.78287e-07
3.78069e-07
2.85445e-07
2.04389e-07
1.37687e-07
8.59736e-08
5.01764e-08
2.79209e-08
9.78201e-09
)
;
    }
    front
    {
        type            wedge;
    }
    back
    {
        type            wedge;
    }
}


// ************************************************************************* //
