/*--------------------------------*- C++ -*----------------------------------*\
| =========                 |                                                 |
| \\      /  F ield         | OpenFOAM: The Open Source CFD Toolbox           |
|  \\    /   O peration     | Version:  2.4.x                                 |
|   \\  /    A nd           | Web:      www.OpenFOAM.org                      |
|    \\/     M anipulation  |                                                 |
\*---------------------------------------------------------------------------*/
FoamFile
{
    version     2.0;
    format      ascii;
    class       volScalarField;
    location    "0.1";
    object      O;
}
// * * * * * * * * * * * * * * * * * * * * * * * * * * * * * * * * * * * * * //

dimensions      [0 0 0 0 0 0 0];

internalField   nonuniform List<scalar> 
1250
(
2.0815e-07
8.49994e-07
1.81314e-06
3.1185e-06
4.9305e-06
7.34606e-06
1.0372e-05
1.39099e-05
1.7665e-05
2.10258e-05
2.41367e-05
2.62539e-05
2.80978e-05
2.9672e-05
3.11756e-05
3.24661e-05
3.30833e-05
3.26796e-05
3.2182e-05
3.16193e-05
3.11411e-05
3.07615e-05
3.05704e-05
3.00084e-05
2.90727e-05
2.80004e-05
2.69753e-05
2.61614e-05
2.54676e-05
2.50031e-05
2.47836e-05
2.48119e-05
2.52182e-05
2.58235e-05
2.64234e-05
2.71861e-05
2.80331e-05
2.89924e-05
3.02245e-05
3.16802e-05
3.36851e-05
3.58995e-05
3.87055e-05
4.25866e-05
4.64231e-05
5.19093e-05
5.88867e-05
6.68862e-05
8.66206e-05
0.000139116
2.30562e-07
9.59626e-07
2.04622e-06
3.56146e-06
5.70157e-06
8.52389e-06
1.19917e-05
1.58911e-05
1.94265e-05
2.29294e-05
2.60483e-05
2.81566e-05
2.99084e-05
3.14835e-05
3.29225e-05
3.41344e-05
3.46171e-05
3.41419e-05
3.35499e-05
3.29549e-05
3.24354e-05
3.20418e-05
3.18433e-05
3.12495e-05
3.04189e-05
2.92702e-05
2.82446e-05
2.73851e-05
2.66858e-05
2.62248e-05
2.60028e-05
2.60594e-05
2.64651e-05
2.70539e-05
2.76716e-05
2.84341e-05
2.92795e-05
3.02608e-05
3.15238e-05
3.30279e-05
3.50679e-05
3.73386e-05
4.02006e-05
4.41441e-05
4.80165e-05
5.35691e-05
6.05376e-05
6.86183e-05
8.84992e-05
0.000140417
2.9455e-07
1.28227e-06
2.78886e-06
5.04404e-06
8.25504e-06
1.22534e-05
1.6504e-05
2.03207e-05
2.41263e-05
2.79179e-05
3.09062e-05
3.28341e-05
3.4452e-05
3.58785e-05
3.70474e-05
3.81039e-05
3.82445e-05
3.7538e-05
3.6775e-05
3.60623e-05
3.54512e-05
3.50117e-05
3.47843e-05
3.4131e-05
3.33635e-05
3.22171e-05
3.11308e-05
3.01708e-05
2.9444e-05
2.89664e-05
2.87201e-05
2.88277e-05
2.92609e-05
2.98082e-05
3.04806e-05
3.12397e-05
3.20764e-05
3.31168e-05
3.4436e-05
3.60448e-05
3.81206e-05
4.05028e-05
4.34841e-05
4.75519e-05
5.14997e-05
5.72104e-05
6.42714e-05
7.2539e-05
9.26946e-05
0.000143229
4.57279e-07
2.20971e-06
5.2672e-06
1.00674e-05
1.56309e-05
2.05727e-05
2.53251e-05
2.97924e-05
3.38504e-05
3.77215e-05
4.00844e-05
4.15169e-05
4.26006e-05
4.34622e-05
4.42129e-05
4.4919e-05
4.43922e-05
4.32654e-05
4.21958e-05
4.12339e-05
4.04656e-05
3.99032e-05
3.96514e-05
3.88641e-05
3.79332e-05
3.71257e-05
3.58325e-05
3.47777e-05
3.39842e-05
3.34181e-05
3.32009e-05
3.33243e-05
3.37299e-05
3.43951e-05
3.5028e-05
3.57308e-05
3.65847e-05
3.76789e-05
3.90871e-05
4.07668e-05
4.2939e-05
4.5457e-05
4.86577e-05
5.28586e-05
5.69519e-05
6.2909e-05
6.99417e-05
7.84214e-05
9.88921e-05
0.000147177
1.11322e-06
6.97031e-06
1.69855e-05
2.6118e-05
3.39075e-05
4.02012e-05
4.49442e-05
4.90751e-05
5.23992e-05
5.54729e-05
5.59092e-05
5.59043e-05
5.57378e-05
5.553e-05
5.54261e-05
5.5532e-05
5.38731e-05
5.20305e-05
5.04323e-05
4.90564e-05
4.79969e-05
4.72445e-05
4.68401e-05
4.59065e-05
4.46934e-05
4.36779e-05
4.28361e-05
4.15636e-05
4.05986e-05
3.99817e-05
3.96966e-05
3.9728e-05
4.01921e-05
4.10215e-05
4.15436e-05
4.2198e-05
4.30637e-05
4.4208e-05
4.5652e-05
4.73802e-05
4.96834e-05
5.23589e-05
5.57879e-05
6.00787e-05
6.43338e-05
7.05518e-05
7.76578e-05
8.62164e-05
0.000106957
0.000151832
3.24908e-05
5.1962e-05
5.91272e-05
6.39765e-05
6.74365e-05
6.99754e-05
7.17648e-05
7.36111e-05
7.54542e-05
7.69448e-05
7.58677e-05
7.5269e-05
7.50828e-05
7.34873e-05
7.20454e-05
7.09376e-05
6.75754e-05
6.46911e-05
6.22431e-05
6.02229e-05
5.87033e-05
5.76115e-05
5.6955e-05
5.578e-05
5.42169e-05
5.28908e-05
5.18688e-05
5.09791e-05
4.97699e-05
4.89059e-05
4.85376e-05
4.85423e-05
4.88903e-05
4.96119e-05
5.04998e-05
5.10226e-05
5.18403e-05
5.29085e-05
5.4327e-05
5.61393e-05
5.8569e-05
6.13781e-05
6.49462e-05
6.93066e-05
7.36964e-05
8.02007e-05
8.72224e-05
9.58382e-05
0.000116502
0.0001566
0.000183698
0.000142565
0.000128399
0.000120948
0.000116109
0.000113417
0.000110344
0.000108294
0.000107173
0.000104949
0.000101422
9.88402e-05
9.70482e-05
9.59676e-05
9.51985e-05
9.1709e-05
8.64852e-05
8.2101e-05
7.84807e-05
7.55338e-05
7.32721e-05
7.15984e-05
7.04881e-05
6.90557e-05
6.68698e-05
6.51093e-05
6.37966e-05
6.28778e-05
6.19657e-05
6.08248e-05
6.01356e-05
5.98631e-05
6.00246e-05
6.06339e-05
6.17443e-05
6.25822e-05
6.31157e-05
6.40205e-05
6.53674e-05
6.71995e-05
6.96325e-05
7.2477e-05
7.61459e-05
8.04806e-05
8.50363e-05
9.17263e-05
9.84182e-05
0.000106922
0.000126914
0.000160859
0.000234744
0.000197358
0.00018672
0.00017792
0.000168833
0.000162795
0.000156303
0.000150815
0.000146508
0.000139991
0.000133796
0.000128927
0.000125246
0.000122514
0.000120673
0.000118175
0.000110726
0.000104513
9.94186e-05
9.52924e-05
9.20212e-05
8.95818e-05
8.79073e-05
8.6263e-05
8.32797e-05
8.09201e-05
7.90783e-05
7.77513e-05
7.69496e-05
7.58129e-05
7.46928e-05
7.40812e-05
7.39302e-05
7.42395e-05
7.50572e-05
7.63495e-05
7.7034e-05
7.77005e-05
7.88724e-05
8.05505e-05
8.28467e-05
8.56027e-05
8.92565e-05
9.35285e-05
9.81297e-05
0.000104712
0.000110819
0.00011915
0.00013744
0.000163853
0.000179954
0.000175857
0.000180906
0.000196446
0.000201717
0.000200743
0.000197243
0.000191844
0.000186092
0.000177551
0.000169923
0.000163484
0.00015821
0.000153994
0.000150825
0.000146388
0.000140345
0.000132116
0.000125367
0.000119796
0.000115317
0.000111842
0.000109217
0.000107291
0.000103367
0.000100202
9.76859e-05
9.58468e-05
9.45748e-05
9.3926e-05
9.22514e-05
9.10199e-05
9.03917e-05
9.02776e-05
9.07249e-05
9.16641e-05
9.30717e-05
9.36824e-05
9.4468e-05
9.58451e-05
9.7888e-05
0.000100552
0.00010411
0.000108049
0.000112466
0.000118674
0.000124067
0.000131688
0.000147276
0.000166152
7.1512e-05
7.55106e-05
0.000116218
0.000158884
0.00019053
0.00020867
0.000216962
0.000218818
0.000217659
0.000213315
0.000207909
0.000202164
0.00019682
0.000192034
0.000187956
0.000181062
0.000174782
0.000165007
0.000156372
0.000149076
0.00014301
0.000138129
0.000134148
0.000131028
0.000126552
0.000122486
0.000119215
0.000116756
0.000114969
0.000113808
0.00011245
0.000110495
0.000109161
0.000108424
0.000108263
0.000108666
0.000109576
0.000111003
0.000111703
0.000112728
0.000114434
0.000116708
0.000119816
0.000123256
0.000127412
0.000132844
0.000137143
0.000143667
0.00015551
0.000166933
5.50502e-06
1.56073e-05
4.0197e-05
9.06594e-05
0.000140465
0.000177965
0.000203945
0.000219827
0.000228768
0.000231746
0.000233338
0.000232108
0.000229552
0.000226575
0.000223201
0.000216465
0.000210308
0.000199636
0.000189464
0.000180654
0.000173103
0.000166826
0.000161489
0.000157144
0.000152277
0.000147447
0.000143515
0.000140374
0.000137956
0.00013618
0.000134953
0.000132086
0.000129948
0.000128433
0.000127595
0.000127353
0.000127667
0.000128502
0.00012976
0.00013065
0.00013177
0.000133561
0.000136095
0.000138862
0.000142356
0.000146454
0.000149472
0.000154516
0.000161805
0.000165843
1.6793e-06
5.12739e-06
1.06079e-05
2.78987e-05
6.29752e-05
0.000113875
0.000156813
0.000188306
0.000212142
0.000227919
0.000237454
0.000242455
0.000244876
0.000245222
0.000244015
0.000242463
0.000237466
0.00022824
0.000219081
0.000210586
0.000202842
0.000196017
0.000190021
0.000184848
0.000179747
0.000174498
0.0001701
0.000166458
0.000163524
0.000161192
0.000159473
0.000156019
0.000152967
0.000150578
0.000148887
0.000147808
0.000147311
0.000147323
0.000147822
0.000148763
0.000149815
0.00015086
0.000152383
0.000154143
0.000156717
0.000159078
0.000160519
0.000163544
0.000166115
0.000162423
6.66887e-07
2.32136e-06
4.30884e-06
8.25876e-06
1.77331e-05
3.9292e-05
7.21532e-05
0.000112636
0.000152825
0.000186494
0.000211442
0.000227848
0.000239412
0.000246128
0.00024867
0.000248638
0.000245706
0.000241118
0.00023598
0.000230484
0.000224812
0.000219328
0.000214156
0.000209424
0.000204871
0.000200238
0.000196125
0.00019253
0.000189488
0.000186881
0.00018466
0.000180198
0.000176442
0.000173251
0.000170731
0.00016879
0.000167374
0.000166405
0.000165897
0.000165774
0.000165984
0.000166419
0.000166972
0.000167551
0.000168676
0.000168859
0.000168558
0.000169271
0.000167491
0.000155675
3.40783e-07
1.23283e-06
2.33584e-06
3.86706e-06
6.47484e-06
1.12881e-05
2.07593e-05
3.83797e-05
6.51844e-05
9.42521e-05
0.000123793
0.000150602
0.000172936
0.000192162
0.000206714
0.00021748
0.000224476
0.000228308
0.000230367
0.000230682
0.000229537
0.000227462
0.00022501
0.000222324
0.000219654
0.000217203
0.000214678
0.000212231
0.000209978
0.000207921
0.000203727
0.000199329
0.000195389
0.000191857
0.000188844
0.000186245
0.000184076
0.000182332
0.000180805
0.000179636
0.000178646
0.000177834
0.000176994
0.000176144
0.000175449
0.000173695
0.000172115
0.00017045
0.000163937
0.00014462
2.08824e-07
7.49211e-07
1.41545e-06
2.28933e-06
3.44619e-06
5.11631e-06
7.65771e-06
1.18009e-05
1.87241e-05
2.99167e-05
4.63005e-05
6.73401e-05
9.1043e-05
0.000112494
0.000132602
0.000150565
0.00016596
0.000178654
0.000188904
0.000197234
0.000203305
0.000207563
0.000210605
0.00021233
0.000214246
0.000215523
0.000216268
0.000216629
0.000214603
0.000211699
0.000208714
0.000205665
0.000202649
0.000199749
0.000197007
0.000194414
0.000192003
0.00018979
0.000187611
0.00018553
0.000183546
0.000181634
0.000179493
0.00017745
0.000175089
0.000171901
0.000169264
0.000164289
0.000154004
0.000129184
1.41563e-07
4.97615e-07
9.31573e-07
1.4667e-06
2.14706e-06
3.0305e-06
4.11729e-06
5.626e-06
7.69687e-06
1.06647e-05
1.49101e-05
2.09203e-05
2.94231e-05
4.06957e-05
5.44144e-05
6.98057e-05
8.59714e-05
0.000102081
0.000117204
0.000130983
0.000142959
0.000153116
0.00016156
0.000169216
0.000175426
0.000180443
0.000184599
0.000187438
0.00018939
0.000190517
0.000190828
0.000190729
0.000190127
0.00018906
0.000187705
0.000186152
0.000184373
0.000182482
0.000180453
0.000178279
0.000176035
0.000173585
0.000170763
0.000167812
0.000164683
0.000160772
0.000156826
0.000149161
0.000136925
0.000109379
1.01191e-07
3.48661e-07
6.46258e-07
1.00244e-06
1.4323e-06
1.95797e-06
2.61013e-06
3.40391e-06
4.34315e-06
5.55112e-06
6.97966e-06
8.74303e-06
1.11063e-05
1.42696e-05
1.84794e-05
2.39749e-05
3.09137e-05
3.92827e-05
4.88388e-05
5.91927e-05
6.98495e-05
8.04773e-05
9.0954e-05
0.000100983
0.000110327
0.000118888
0.000126622
0.000133469
0.000139483
0.00014444
0.000148562
0.000151954
0.000154316
0.00015605
0.000157035
0.000157447
0.000157345
0.000156832
0.000155885
0.00015456
0.000152995
0.000150966
0.00014862
0.000145916
0.000142916
0.000139197
0.000134516
0.000125926
0.000113681
8.62804e-05
7.40097e-08
2.51164e-07
4.61582e-07
7.09329e-07
1.00061e-06
1.34402e-06
1.75077e-06
2.2351e-06
2.81515e-06
3.4739e-06
4.12399e-06
4.9021e-06
5.8417e-06
6.97759e-06
8.36269e-06
1.00772e-05
1.22453e-05
1.49398e-05
1.80415e-05
2.17548e-05
2.62579e-05
3.15836e-05
3.76393e-05
4.43227e-05
5.1445e-05
5.8837e-05
6.63158e-05
7.37335e-05
8.08743e-05
8.74965e-05
9.34785e-05
9.88013e-05
0.000103417
0.000107308
0.000110501
0.000113067
0.000114947
0.000116326
0.00011718
0.000117536
0.000117486
0.000116862
0.000115904
0.000114438
0.000112406
0.000109527
0.000105457
9.81061e-05
8.68121e-05
6.19257e-05
5.42817e-08
1.82436e-07
3.33383e-07
5.09586e-07
7.14187e-07
9.51161e-07
1.22538e-06
1.54263e-06
1.89918e-06
2.27011e-06
2.68688e-06
3.15679e-06
3.66056e-06
4.21369e-06
4.85291e-06
5.59177e-06
6.44833e-06
7.30484e-06
8.22414e-06
9.31481e-06
1.06889e-05
1.23322e-05
1.43761e-05
1.67993e-05
1.97505e-05
2.31955e-05
2.71117e-05
3.14457e-05
3.60775e-05
4.0866e-05
4.56632e-05
5.03472e-05
5.48091e-05
5.89955e-05
6.29258e-05
6.65008e-05
6.96966e-05
7.24775e-05
7.48654e-05
7.6784e-05
7.82948e-05
7.93104e-05
7.9903e-05
7.98083e-05
7.9157e-05
7.76337e-05
7.47195e-05
6.90367e-05
5.90415e-05
3.92965e-05
3.9263e-08
1.31394e-07
2.39644e-07
3.65766e-07
5.11722e-07
6.79691e-07
8.72153e-07
1.07763e-06
1.29987e-06
1.54381e-06
1.8113e-06
2.10461e-06
2.42681e-06
2.78145e-06
3.17281e-06
3.58766e-06
3.97251e-06
4.28852e-06
4.63811e-06
5.02793e-06
5.46286e-06
6.00588e-06
6.65653e-06
7.41766e-06
8.35199e-06
9.52964e-06
1.08725e-05
1.2565e-05
1.44318e-05
1.6484e-05
1.8704e-05
2.12776e-05
2.39559e-05
2.68379e-05
2.97316e-05
3.26923e-05
3.55608e-05
3.84597e-05
4.11902e-05
4.3716e-05
4.60596e-05
4.77713e-05
4.90575e-05
4.97456e-05
4.97883e-05
4.91731e-05
4.71693e-05
4.25702e-05
3.47704e-05
2.11464e-05
2.74571e-08
9.208e-08
1.68476e-07
2.58055e-07
3.59971e-07
4.74021e-07
6.01155e-07
7.41577e-07
8.95464e-07
1.06309e-06
1.24492e-06
1.4415e-06
1.65368e-06
1.88258e-06
2.12962e-06
2.37002e-06
2.54104e-06
2.71045e-06
2.87919e-06
3.04485e-06
3.22305e-06
3.418e-06
3.63518e-06
3.8812e-06
4.16498e-06
4.41906e-06
4.76223e-06
5.16612e-06
5.64706e-06
6.35771e-06
7.22267e-06
8.21671e-06
9.4998e-06
1.08931e-05
1.24744e-05
1.42276e-05
1.60244e-05
1.80015e-05
1.9989e-05
2.19097e-05
2.38491e-05
2.5683e-05
2.73471e-05
2.80238e-05
2.81414e-05
2.75802e-05
2.56513e-05
2.20352e-05
1.67966e-05
9.03331e-06
1.75027e-08
5.93959e-08
1.09559e-07
1.68712e-07
2.37275e-07
3.15447e-07
4.03272e-07
5.00706e-07
6.07673e-07
7.24039e-07
8.49847e-07
9.85158e-07
1.12999e-06
1.28463e-06
1.41794e-06
1.52153e-06
1.6194e-06
1.71099e-06
1.796e-06
1.8744e-06
1.94602e-06
2.01136e-06
2.07183e-06
2.09511e-06
2.11418e-06
2.13668e-06
2.17332e-06
2.23558e-06
2.33737e-06
2.55238e-06
2.90017e-06
3.34094e-06
3.87047e-06
4.55132e-06
5.36221e-06
6.24059e-06
7.17545e-06
8.23331e-06
9.33863e-06
1.04339e-05
1.15093e-05
1.25191e-05
1.34017e-05
1.40284e-05
1.38529e-05
1.30488e-05
1.149e-05
9.23637e-06
6.26178e-06
3.11592e-06
9.40713e-09
3.36104e-08
6.42353e-08
1.0172e-07
1.46267e-07
1.97903e-07
2.56615e-07
3.22312e-07
3.94832e-07
4.74026e-07
5.5976e-07
6.52001e-07
7.35058e-07
8.05077e-07
8.7115e-07
9.32292e-07
9.8762e-07
1.03624e-06
1.07736e-06
1.11021e-06
1.13424e-06
1.12195e-06
1.08828e-06
1.04119e-06
9.83227e-07
9.19063e-07
8.61415e-07
8.47801e-07
8.63311e-07
9.22887e-07
1.04258e-06
1.22545e-06
1.46774e-06
1.80429e-06
2.22337e-06
2.68717e-06
3.18582e-06
3.70553e-06
4.23126e-06
4.74207e-06
5.21754e-06
5.62062e-06
5.90009e-06
5.98568e-06
5.70131e-06
5.06051e-06
4.16034e-06
3.04565e-06
1.83592e-06
8.56206e-07
3.11174e-09
1.38283e-08
3.02085e-08
5.13788e-08
7.7303e-08
1.08012e-07
1.43676e-07
1.84255e-07
2.25096e-07
2.65729e-07
3.07107e-07
3.48427e-07
3.88852e-07
4.27502e-07
4.63347e-07
4.95301e-07
5.22336e-07
5.43541e-07
5.51617e-07
5.40449e-07
5.1813e-07
4.85762e-07
4.40125e-07
3.83931e-07
3.19999e-07
2.47822e-07
2.15624e-07
2.2837e-07
2.47639e-07
2.74803e-07
3.14373e-07
3.83855e-07
4.61965e-07
5.47179e-07
7.47471e-07
9.78478e-07
1.22675e-06
1.48134e-06
1.72326e-06
1.92846e-06
2.0883e-06
2.17908e-06
2.2013e-06
2.09548e-06
1.86471e-06
1.52193e-06
1.10779e-06
7.1709e-07
3.92236e-07
1.72086e-07
1.25763e-10
2.49583e-09
6.35449e-09
1.11899e-08
1.71565e-08
2.41404e-08
3.21514e-08
4.05125e-08
4.88706e-08
5.70488e-08
6.46235e-08
7.11307e-08
7.6103e-08
7.91905e-08
8.01322e-08
7.79694e-08
7.17094e-08
6.07089e-08
4.70628e-08
4.68279e-08
4.58931e-08
4.42408e-08
4.19453e-08
3.92524e-08
3.65342e-08
3.42852e-08
3.31939e-08
3.38744e-08
3.66321e-08
4.17761e-08
4.95756e-08
5.98171e-08
7.20534e-08
8.58262e-08
1.00492e-07
1.15173e-07
1.28831e-07
1.40346e-07
1.48414e-07
1.51874e-07
1.49912e-07
1.87019e-07
2.12739e-07
2.12762e-07
1.91167e-07
1.54492e-07
1.09148e-07
6.89578e-08
3.66039e-08
1.94537e-08
)
;

boundaryField
{
    AXIS
    {
        type            empty;
    }
    OUTLET
    {
        type            calculated;
        value           nonuniform List<scalar> 
25
(
0.000139116
0.000140417
0.000143229
0.000147177
0.000151832
0.0001566
0.000160859
0.000163853
0.000166152
0.000166933
0.000165843
0.000162423
0.000155675
0.00014462
0.000129184
0.000109379
8.62804e-05
6.19257e-05
3.92965e-05
2.11464e-05
9.03331e-06
3.11592e-06
8.56206e-07
1.72086e-07
1.94537e-08
)
;
    }
    COFLOW
    {
        type            calculated;
        value           uniform 0;
    }
    PILOT
    {
        type            calculated;
        value           uniform 0.000378354;
    }
    FUEL
    {
        type            calculated;
        value           uniform 0;
    }
    WALL
    {
        type            calculated;
        value           nonuniform List<scalar> 
50
(
1.25763e-10
2.49583e-09
6.35449e-09
1.11899e-08
1.71565e-08
2.41404e-08
3.21514e-08
4.05125e-08
4.88706e-08
5.70488e-08
6.46235e-08
7.11307e-08
7.6103e-08
7.91905e-08
8.01322e-08
7.79694e-08
7.17094e-08
6.07089e-08
4.70628e-08
4.68279e-08
4.58931e-08
4.42408e-08
4.19453e-08
3.92524e-08
3.65342e-08
3.42852e-08
3.31939e-08
3.38744e-08
3.66321e-08
4.17761e-08
4.95756e-08
5.98171e-08
7.20534e-08
8.58262e-08
1.00492e-07
1.15173e-07
1.28831e-07
1.40346e-07
1.48414e-07
1.51874e-07
1.49912e-07
1.87019e-07
2.12739e-07
2.12762e-07
1.91167e-07
1.54492e-07
1.09148e-07
6.89578e-08
3.66039e-08
1.94537e-08
)
;
    }
    front
    {
        type            wedge;
    }
    back
    {
        type            wedge;
    }
}


// ************************************************************************* //
