/*--------------------------------*- C++ -*----------------------------------*\
| =========                 |                                                 |
| \\      /  F ield         | OpenFOAM: The Open Source CFD Toolbox           |
|  \\    /   O peration     | Version:  2.4.x                                 |
|   \\  /    A nd           | Web:      www.OpenFOAM.org                      |
|    \\/     M anipulation  |                                                 |
\*---------------------------------------------------------------------------*/
FoamFile
{
    version     2.0;
    format      ascii;
    class       volScalarField;
    location    "0.1";
    object      O2;
}
// * * * * * * * * * * * * * * * * * * * * * * * * * * * * * * * * * * * * * //

dimensions      [0 0 0 0 0 0 0];

internalField   nonuniform List<scalar> 
1250
(
0.195451
0.19133
0.187037
0.182973
0.179037
0.17527
0.171645
0.16814
0.164503
0.15987
0.155101
0.150353
0.145383
0.140223
0.134997
0.129551
0.12419
0.119048
0.113846
0.108544
0.103173
0.0977235
0.0922441
0.0873067
0.0817505
0.0758136
0.0699674
0.0643016
0.058776
0.0534917
0.0484024
0.0435587
0.0390647
0.0350919
0.03139
0.0280016
0.0249185
0.0221036
0.0196044
0.0173748
0.0154377
0.0137429
0.0123273
0.0111975
0.0102824
0.00958931
0.00941053
0.00994697
0.0123765
0.022628
0.195193
0.190592
0.186144
0.182002
0.178076
0.174386
0.170893
0.167534
0.16327
0.158588
0.153815
0.149068
0.144078
0.138966
0.133736
0.128292
0.122978
0.117878
0.112686
0.107417
0.102063
0.0966432
0.0912029
0.0863056
0.0811624
0.0752428
0.0694483
0.0638058
0.0583345
0.0530862
0.048042
0.0432455
0.0387603
0.0348274
0.0311718
0.0278269
0.0247792
0.0220067
0.0195439
0.0173529
0.0154456
0.0137895
0.0123976
0.0112987
0.0104035
0.00973816
0.00958003
0.0101499
0.0126583
0.0230845
0.19438
0.188516
0.183744
0.179537
0.175806
0.172526
0.169091
0.164858
0.160361
0.155654
0.150882
0.146135
0.141202
0.136147
0.130886
0.125496
0.120303
0.115268
0.110137
0.104921
0.0996215
0.0942837
0.0889332
0.0841481
0.0795365
0.0739951
0.0682898
0.0627078
0.0573447
0.0521696
0.0472219
0.0425261
0.0380989
0.0342175
0.0306757
0.0274318
0.0244619
0.0217934
0.0194031
0.0173028
0.0154474
0.0138757
0.0125383
0.0115084
0.0106585
0.0100614
0.00998625
0.0106347
0.0133556
0.0240995
0.191889
0.183803
0.178927
0.175502
0.172328
0.168465
0.164439
0.160231
0.155727
0.150994
0.146306
0.141656
0.136792
0.13175
0.12657
0.121298
0.11627
0.111338
0.106288
0.101161
0.0959904
0.090789
0.085633
0.080994
0.0765564
0.0721799
0.066569
0.0611358
0.0558852
0.0508442
0.0460526
0.04152
0.0372192
0.0333618
0.0299725
0.0268538
0.0240277
0.0214865
0.0192234
0.0172282
0.0154851
0.0140187
0.0127873
0.0118537
0.0110911
0.0106096
0.0106156
0.0113693
0.0144069
0.0257063
0.18184
0.172395
0.171129
0.168222
0.165141
0.161834
0.15808
0.15395
0.149467
0.144734
0.14025
0.13567
0.130953
0.126123
0.121076
0.115819
0.111018
0.106187
0.10129
0.0963295
0.091368
0.0864042
0.0814655
0.0770259
0.0728023
0.0686534
0.0643851
0.0590943
0.0540306
0.0492006
0.0445991
0.0402301
0.0361361
0.0323171
0.0290768
0.0261541
0.0235077
0.0211386
0.0190286
0.0171744
0.0155893
0.0142524
0.0131612
0.0123458
0.011703
0.0113691
0.0115312
0.0123728
0.0158772
0.0279165
0.124168
0.151944
0.15675
0.15639
0.154338
0.15152
0.148072
0.144118
0.140073
0.13606
0.132381
0.128418
0.124261
0.119421
0.114396
0.109304
0.104739
0.100113
0.0954253
0.0907008
0.0860109
0.0813389
0.0767037
0.0724635
0.0685157
0.0646023
0.0607811
0.0567202
0.0518751
0.0472443
0.0429047
0.0388129
0.0349576
0.0313515
0.0281115
0.0253955
0.0229732
0.0207895
0.0188793
0.0172188
0.0158102
0.014642
0.013702
0.0130487
0.0125471
0.0124039
0.0127247
0.0137685
0.0177986
0.0307916
0.0708773
0.126588
0.140534
0.143527
0.143152
0.140747
0.137576
0.133945
0.130005
0.126253
0.122673
0.118916
0.115063
0.111116
0.107001
0.102205
0.0978487
0.0934548
0.0890351
0.0846118
0.0802834
0.0759404
0.0715844
0.0675632
0.0639256
0.0603209
0.0567839
0.0533299
0.049519
0.0452059
0.0411382
0.0373114
0.0337338
0.0304006
0.027346
0.0247133
0.0225114
0.020567
0.0188629
0.017416
0.0162045
0.0152257
0.0144848
0.0140087
0.0136873
0.0137531
0.0143038
0.0155544
0.0201947
0.0343238
0.0574786
0.118365
0.133762
0.135813
0.134985
0.131872
0.128153
0.124218
0.120151
0.116576
0.113108
0.109559
0.105946
0.102334
0.0987129
0.0952565
0.0911442
0.0869912
0.0828292
0.0786931
0.074586
0.0705193
0.0664925
0.0626714
0.0593313
0.056078
0.0528782
0.0497539
0.046714
0.0431472
0.0394134
0.03592
0.0326489
0.0296028
0.0268333
0.0243008
0.0222475
0.020559
0.0191096
0.0178849
0.0168921
0.0161139
0.0155749
0.0153088
0.0151603
0.0155356
0.0162746
0.0178353
0.0231509
0.0386364
0.0761676
0.132308
0.141875
0.138075
0.132674
0.127745
0.12234
0.117353
0.112673
0.108791
0.105092
0.101486
0.0979389
0.094475
0.0910478
0.0878847
0.0846638
0.0807278
0.0768127
0.0729526
0.0691785
0.0654529
0.0617737
0.0581956
0.0551664
0.052239
0.0493635
0.0465978
0.0438808
0.0412661
0.0379262
0.0347558
0.0318301
0.0291124
0.0266573
0.0244222
0.0224022
0.0209022
0.0197029
0.0187111
0.0179373
0.0174021
0.0170974
0.0170636
0.0171657
0.0178002
0.0188044
0.0206659
0.0267381
0.0437238
0.138408
0.168844
0.16633
0.152056
0.140174
0.130449
0.122444
0.115362
0.109053
0.103321
0.0982082
0.0935871
0.0893124
0.0853649
0.0817765
0.0794086
0.0770933
0.0737983
0.070362
0.0670185
0.0637598
0.0605886
0.0575278
0.0545625
0.0518255
0.0491861
0.0466064
0.0441523
0.0417595
0.0394564
0.0369178
0.034102
0.0314945
0.0291108
0.0269312
0.0250042
0.023279
0.0217967
0.0207881
0.0200395
0.0195036
0.0192191
0.0191664
0.0193341
0.019679
0.020622
0.0218383
0.0241078
0.0309547
0.0494036
0.219894
0.206483
0.194147
0.17596
0.157693
0.142614
0.130403
0.120172
0.112233
0.105153
0.0983556
0.0921334
0.0866999
0.0817689
0.077429
0.0746723
0.0721605
0.0690723
0.0660073
0.063056
0.0602002
0.0574275
0.0547532
0.052156
0.0496616
0.0472701
0.0449865
0.0427797
0.0406436
0.0386057
0.0366166
0.0341134
0.0318529
0.0297612
0.0279104
0.0262553
0.0248383
0.0236098
0.0226737
0.0220955
0.0217952
0.0217429
0.0219399
0.0223396
0.0229264
0.0242112
0.0257027
0.0283678
0.0361944
0.055765
0.229233
0.22172
0.213597
0.200806
0.183529
0.165191
0.148457
0.134749
0.123223
0.1135
0.105586
0.0985221
0.092411
0.0870162
0.0823764
0.077839
0.0733109
0.0692275
0.0657511
0.0625379
0.059569
0.0567696
0.0541247
0.051616
0.0492573
0.0470414
0.0449339
0.042924
0.0410068
0.0391675
0.0374042
0.0353054
0.033347
0.0315616
0.0299916
0.0286329
0.0274618
0.0265613
0.0258522
0.0254014
0.0252252
0.0253801
0.0258493
0.0265123
0.0273845
0.0289741
0.0307392
0.0339045
0.0427262
0.0632592
0.231467
0.227566
0.223156
0.216602
0.206579
0.19284
0.176435
0.159914
0.145127
0.132412
0.121549
0.111904
0.103699
0.0966233
0.0903961
0.0847931
0.0797816
0.0752573
0.0711123
0.0672645
0.0637315
0.0604472
0.0573935
0.0545059
0.0519189
0.0497084
0.0476236
0.0456545
0.043801
0.0420391
0.0403648
0.0384355
0.0366968
0.0351628
0.0338505
0.0327237
0.0318179
0.0311644
0.0307082
0.0305204
0.0305392
0.0308438
0.031467
0.0323889
0.0335852
0.0354675
0.0374469
0.0413457
0.0509708
0.0723895
0.232192
0.230055
0.227424
0.224076
0.219232
0.21238
0.202902
0.190641
0.176614
0.161894
0.148172
0.135802
0.124932
0.115592
0.107269
0.0998383
0.0933413
0.0874575
0.0821972
0.0774224
0.0731125
0.0691941
0.065585
0.062227
0.0593045
0.056791
0.0544819
0.0523325
0.0503193
0.0484401
0.0464617
0.0446259
0.0430026
0.0415733
0.0404146
0.0394542
0.0387263
0.038222
0.0379871
0.0379819
0.0382217
0.0387479
0.0395761
0.0406696
0.0420902
0.0442012
0.0465235
0.0511666
0.0613461
0.0835492
0.232499
0.2312
0.229604
0.227576
0.225052
0.221731
0.21733
0.211403
0.203569
0.193716
0.182188
0.170021
0.158191
0.146819
0.136405
0.126976
0.118496
0.11082
0.103828
0.0973087
0.0915125
0.086286
0.0815437
0.0772351
0.073613
0.070397
0.0674227
0.0646585
0.0619854
0.0594893
0.0572178
0.0552199
0.0534917
0.0520041
0.0508304
0.0498462
0.0491498
0.0487126
0.0485492
0.0486736
0.0490332
0.049677
0.0506532
0.0518807
0.0534949
0.0557659
0.0583328
0.0637083
0.074236
0.09675
0.232661
0.23181
0.230778
0.229528
0.227985
0.226058
0.223829
0.220927
0.217305
0.212689
0.206934
0.199929
0.191563
0.18216
0.172242
0.162321
0.152733
0.143608
0.135155
0.127315
0.120143
0.113533
0.107457
0.102
0.0970472
0.0923969
0.0880428
0.0840822
0.0804916
0.0772435
0.0743908
0.0718526
0.0696717
0.0678484
0.0663705
0.065177
0.0643447
0.0637524
0.0634515
0.0634856
0.0637527
0.0643621
0.065312
0.066567
0.0681925
0.0705068
0.0733256
0.079366
0.0898669
0.112164
0.23276
0.232174
0.231474
0.230648
0.229668
0.228498
0.227084
0.22542
0.223544
0.221228
0.218495
0.215326
0.211417
0.206704
0.201116
0.194628
0.187353
0.179496
0.17135
0.163205
0.155281
0.147769
0.140622
0.133909
0.127653
0.121834
0.116442
0.111432
0.106802
0.102636
0.0989036
0.0955618
0.0926982
0.0902186
0.0881583
0.0864638
0.0851432
0.0841378
0.0834884
0.0831595
0.0830753
0.0834106
0.0840519
0.085051
0.0864959
0.0886688
0.0916404
0.0978617
0.107881
0.130057
0.232827
0.232413
0.231924
0.231354
0.230694
0.229928
0.229038
0.227997
0.226775
0.225381
0.223971
0.222315
0.220359
0.218084
0.21549
0.212421
0.208851
0.204692
0.199975
0.194702
0.188914
0.182704
0.176237
0.169668
0.163173
0.156794
0.150614
0.144676
0.139083
0.133968
0.129347
0.125193
0.121499
0.118267
0.115472
0.113064
0.111061
0.109411
0.108098
0.107136
0.106477
0.10626
0.10635
0.106835
0.107893
0.109763
0.112737
0.118594
0.128458
0.150348
0.232875
0.232579
0.232233
0.231833
0.231373
0.230846
0.230246
0.229561
0.22879
0.227943
0.226985
0.2259
0.224758
0.223536
0.222143
0.220555
0.218744
0.216788
0.214574
0.21202
0.209097
0.20576
0.201983
0.197771
0.193187
0.188263
0.183108
0.177845
0.172593
0.167504
0.162686
0.158202
0.154036
0.150198
0.146658
0.143441
0.140578
0.138073
0.135889
0.134127
0.132705
0.1317
0.131083
0.131094
0.131666
0.133061
0.135909
0.141513
0.151454
0.172141
0.232911
0.232701
0.232457
0.232173
0.231848
0.231478
0.231058
0.230596
0.230087
0.229523
0.228899
0.22821
0.227446
0.226601
0.225663
0.224693
0.223713
0.222667
0.221492
0.22017
0.218684
0.217022
0.215126
0.212961
0.210499
0.207714
0.204637
0.201252
0.197606
0.193826
0.189983
0.186159
0.182374
0.178694
0.175138
0.171772
0.168597
0.165707
0.163065
0.16076
0.158784
0.157268
0.156214
0.155848
0.156213
0.157366
0.160156
0.165829
0.175574
0.193866
0.232938
0.232794
0.232623
0.232424
0.232197
0.231939
0.23165
0.231328
0.230972
0.230581
0.230153
0.229686
0.229178
0.228624
0.228021
0.227377
0.226717
0.226
0.225219
0.224462
0.223626
0.222691
0.221637
0.220442
0.219081
0.217559
0.215831
0.213888
0.21172
0.209307
0.206723
0.204026
0.201227
0.198382
0.195526
0.19271
0.189989
0.187439
0.185069
0.182967
0.18115
0.179712
0.178736
0.178552
0.179039
0.180515
0.183875
0.189965
0.198945
0.212669
0.232961
0.232867
0.232753
0.23262
0.232464
0.232286
0.232084
0.231858
0.231609
0.231335
0.231036
0.230711
0.230361
0.229983
0.229591
0.229187
0.228758
0.228299
0.227806
0.227273
0.226691
0.226052
0.225339
0.224649
0.223853
0.222923
0.22185
0.220624
0.219239
0.217669
0.215934
0.214097
0.212193
0.210243
0.208285
0.206371
0.204539
0.202825
0.201271
0.199959
0.198907
0.19821
0.198015
0.198272
0.199314
0.20155
0.20541
0.210736
0.217454
0.224752
0.232979
0.232923
0.232854
0.232768
0.232665
0.232546
0.232409
0.232255
0.232084
0.231895
0.231689
0.231465
0.231231
0.230989
0.230733
0.230463
0.230178
0.229877
0.229557
0.229214
0.228844
0.228461
0.228044
0.22757
0.227023
0.226383
0.22564
0.224813
0.223868
0.222809
0.221651
0.220432
0.21919
0.21794
0.216723
0.215587
0.214569
0.213706
0.213029
0.212601
0.212464
0.212562
0.213046
0.214085
0.215707
0.217976
0.220955
0.224251
0.227777
0.230565
0.232993
0.232968
0.23293
0.232881
0.23282
0.232747
0.232662
0.232565
0.232458
0.232341
0.232213
0.232075
0.231927
0.231769
0.231603
0.231429
0.231247
0.231056
0.23086
0.230661
0.230448
0.230217
0.22996
0.229665
0.229321
0.228911
0.228423
0.227853
0.227215
0.226515
0.225768
0.225005
0.224259
0.223557
0.222921
0.222391
0.221997
0.221769
0.221706
0.221788
0.222156
0.222794
0.223666
0.224758
0.22613
0.227715
0.22933
0.230706
0.231767
0.232464
0.233
0.232994
0.232983
0.232967
0.232945
0.232917
0.232882
0.232841
0.232794
0.23274
0.232679
0.232612
0.232539
0.232461
0.232381
0.232296
0.232209
0.23212
0.232027
0.231926
0.231816
0.231694
0.231556
0.231397
0.231213
0.231001
0.23076
0.230494
0.230209
0.229913
0.229619
0.229342
0.229101
0.228914
0.228795
0.228756
0.228807
0.228949
0.229184
0.2295
0.229889
0.230324
0.23079
0.231255
0.231693
0.232082
0.232408
0.232647
0.232806
0.232922
)
;

boundaryField
{
    AXIS
    {
        type            empty;
    }
    OUTLET
    {
        type            calculated;
        value           nonuniform List<scalar> 
25
(
0.022628
0.0230845
0.0240995
0.0257063
0.0279165
0.0307916
0.0343238
0.0386364
0.0437238
0.0494036
0.055765
0.0632592
0.0723895
0.0835492
0.09675
0.112164
0.130057
0.150348
0.172141
0.193866
0.212669
0.224752
0.230565
0.232464
0.232922
)
;
    }
    COFLOW
    {
        type            calculated;
        value           uniform 0.233;
    }
    PILOT
    {
        type            calculated;
        value           uniform 0.0299224;
    }
    FUEL
    {
        type            calculated;
        value           uniform 0.197;
    }
    WALL
    {
        type            calculated;
        value           nonuniform List<scalar> 
50
(
0.233
0.232994
0.232983
0.232967
0.232945
0.232917
0.232882
0.232841
0.232794
0.23274
0.232679
0.232612
0.232539
0.232461
0.232381
0.232296
0.232209
0.23212
0.232027
0.231926
0.231816
0.231694
0.231556
0.231397
0.231213
0.231001
0.23076
0.230494
0.230209
0.229913
0.229619
0.229342
0.229101
0.228914
0.228795
0.228756
0.228807
0.228949
0.229184
0.2295
0.229889
0.230324
0.23079
0.231255
0.231693
0.232082
0.232408
0.232647
0.232806
0.232922
)
;
    }
    front
    {
        type            wedge;
    }
    back
    {
        type            wedge;
    }
}


// ************************************************************************* //
