/*--------------------------------*- C++ -*----------------------------------*\
| =========                 |                                                 |
| \\      /  F ield         | OpenFOAM: The Open Source CFD Toolbox           |
|  \\    /   O peration     | Version:  2.4.x                                 |
|   \\  /    A nd           | Web:      www.OpenFOAM.org                      |
|    \\/     M anipulation  |                                                 |
\*---------------------------------------------------------------------------*/
FoamFile
{
    version     2.0;
    format      ascii;
    class       volScalarField;
    location    "0.1";
    object      OH;
}
// * * * * * * * * * * * * * * * * * * * * * * * * * * * * * * * * * * * * * //

dimensions      [0 0 0 0 0 0 0];

internalField   nonuniform List<scalar> 
1250
(
1.91707e-06
7.67466e-06
1.56407e-05
2.50701e-05
3.61934e-05
4.90444e-05
6.35849e-05
7.95087e-05
9.59564e-05
0.000110446
0.000123724
0.00013294
0.000141567
0.000149876
0.00015842
0.000166791
0.000172479
0.000173377
0.000174321
0.000175318
0.000177093
0.000179596
0.000183332
0.000183729
0.000182156
0.000180094
0.000178429
0.00017816
0.000178633
0.000180642
0.000184213
0.000189695
0.000196982
0.000204345
0.000212009
0.000221098
0.000231429
0.000242977
0.000256896
0.000272719
0.000293231
0.000315635
0.000342966
0.000378304
0.000413204
0.000460598
0.000518291
0.000577448
0.000708614
0.00103071
2.12726e-06
8.63705e-06
1.74101e-05
2.78342e-05
4.01938e-05
5.43776e-05
7.02678e-05
8.72726e-05
0.000102234
0.000117078
0.000130283
0.000139479
0.000147935
0.00015637
0.000164851
0.000173244
0.000178519
0.000179381
0.000180168
0.000181306
0.000183101
0.000185807
0.000189705
0.000190137
0.00018927
0.000186995
0.000185568
0.000185201
0.000185838
0.000188009
0.000191789
0.000197551
0.000205236
0.000212586
0.000220453
0.000229689
0.000240103
0.000251884
0.000266061
0.000282319
0.000303104
0.000325971
0.000353631
0.000389358
0.00042442
0.000472149
0.000529668
0.00058905
0.000720104
0.00103698
2.73037e-06
1.14023e-05
2.2653e-05
3.61723e-05
5.22004e-05
6.99636e-05
8.7668e-05
0.000102876
0.000118155
0.00013378
0.000146369
0.000155171
0.000163522
0.000171817
0.00017996
0.000188333
0.000192634
0.000193175
0.000193855
0.000195069
0.000197032
0.00020005
0.000204258
0.000204875
0.000204718
0.0002029
0.000201619
0.000201079
0.000201967
0.000204393
0.000208492
0.000214819
0.000223324
0.000230854
0.000239245
0.000248806
0.000259363
0.000271718
0.00028638
0.0003036
0.000324688
0.000348492
0.000376847
0.000413347
0.000448742
0.000497288
0.000555086
0.000614964
0.000745315
0.00105036
4.27641e-06
1.87169e-05
3.70895e-05
5.91939e-05
8.14688e-05
9.92827e-05
0.000116292
0.000132585
0.000148433
0.000164382
0.000175092
0.000182981
0.000190466
0.000197879
0.000205517
0.000213595
0.000216075
0.000216037
0.000216464
0.00021763
0.0002198
0.000223069
0.000227898
0.000228644
0.000228415
0.000228982
0.000227247
0.000226859
0.00022802
0.000230674
0.00023544
0.000242353
0.000251111
0.000260535
0.000269194
0.000278794
0.000289782
0.000302737
0.000318316
0.000336281
0.000358247
0.000383027
0.0004128
0.000449972
0.000486121
0.000536017
0.000593121
0.000653313
0.000781981
0.00106828
1.02793e-05
4.6773e-05
8.56931e-05
0.000113115
0.000135662
0.00015444
0.000170678
0.000186109
0.000200683
0.000215441
0.000221629
0.000226875
0.000232153
0.000237748
0.000244168
0.000251733
0.000251374
0.000250231
0.000250104
0.000250962
0.000253221
0.000256803
0.000261929
0.000263245
0.000262683
0.000263083
0.000264509
0.000264006
0.000265235
0.000268424
0.000273556
0.000280596
0.000290201
0.000302304
0.000311021
0.000320815
0.000332288
0.000346058
0.000362343
0.000381017
0.000404114
0.000429931
0.000461198
0.000498662
0.000535691
0.000586904
0.000643555
0.000702961
0.000828235
0.00108797
0.00017643
0.00019578
0.000200714
0.000210422
0.000220823
0.000230948
0.000241523
0.000253311
0.000265638
0.000277002
0.0002801
0.000284832
0.000290997
0.000294848
0.000299502
0.000305127
0.000300956
0.000298315
0.000297101
0.000297302
0.000299321
0.000303022
0.000308478
0.000310299
0.000309483
0.000309819
0.000311694
0.000314265
0.000315362
0.00031829
0.000323875
0.000331675
0.000341577
0.000353771
0.000366565
0.000376207
0.000388178
0.000402144
0.000418935
0.000438566
0.000462651
0.000489477
0.000521506
0.000559246
0.000597019
0.00064936
0.000704257
0.000762251
0.000881201
0.0011054
0.000751864
0.000427997
0.000356495
0.000335154
0.000328518
0.000330041
0.000333957
0.000340522
0.000349333
0.000354229
0.000354535
0.000356939
0.000361141
0.000367053
0.000373966
0.00037457
0.000367451
0.000362532
0.000359759
0.000358968
0.000360249
0.000363503
0.000368789
0.000371716
0.000370093
0.000370181
0.000372162
0.000376001
0.000379876
0.000382737
0.00038796
0.000395448
0.000405324
0.000417704
0.000433075
0.000446316
0.000457599
0.000471525
0.000488447
0.000508777
0.000533157
0.000560281
0.000593039
0.00063056
0.000668955
0.000721413
0.000772905
0.000828263
0.000936631
0.00111745
0.00122674
0.000598155
0.000487214
0.00045555
0.000440728
0.000439356
0.000440542
0.000444081
0.000449753
0.000448421
0.000446351
0.000446458
0.000448694
0.000452578
0.000458257
0.000460656
0.000450339
0.000442958
0.000438335
0.000436202
0.000436423
0.0004391
0.000444204
0.000448667
0.000445975
0.000445603
0.000447208
0.000450914
0.000456973
0.00046141
0.000465899
0.000472935
0.000482385
0.000494309
0.000509098
0.000526562
0.000540102
0.000553673
0.000570384
0.000590287
0.000614309
0.000641352
0.000674148
0.000710871
0.000748938
0.000799636
0.000846292
0.000898075
0.000989688
0.0011204
0.00113655
0.000603468
0.000506566
0.000511284
0.000522957
0.00053062
0.000539758
0.000546491
0.000552115
0.000550443
0.000548898
0.000548554
0.000549692
0.000552283
0.00055665
0.000555822
0.000550068
0.000540209
0.000533685
0.00052982
0.000528594
0.000530099
0.000534054
0.00054006
0.000536247
0.000534944
0.000535923
0.000539404
0.000545168
0.000553589
0.000557069
0.000562589
0.000570954
0.000581912
0.000595858
0.000612397
0.000631475
0.000645809
0.000661355
0.000680473
0.000703711
0.00073034
0.000762302
0.000796614
0.00083304
0.000880466
0.000921162
0.000966225
0.00103563
0.00112047
0.000504549
0.00035418
0.000386671
0.000465308
0.000528229
0.000572877
0.000602862
0.000624428
0.000641392
0.000653196
0.000660583
0.000665561
0.000670432
0.000674326
0.000678492
0.000672695
0.000667364
0.000655626
0.000646502
0.000639991
0.000636193
0.000635328
0.000636643
0.000640314
0.00063751
0.000635426
0.00063583
0.00063888
0.000644348
0.000652205
0.000658882
0.000662615
0.000669112
0.000678305
0.000690243
0.00070496
0.000722312
0.000742316
0.000758385
0.000776254
0.000797948
0.000822564
0.000851937
0.000883082
0.000917317
0.000959064
0.000991906
0.00102772
0.00107019
0.00111097
4.5709e-05
0.000108498
0.000194589
0.000326094
0.000447289
0.000537032
0.000603717
0.00065325
0.000690593
0.000718437
0.000742663
0.000761159
0.000774598
0.000785609
0.000794331
0.000792157
0.000789717
0.000778058
0.000766994
0.000758367
0.000752226
0.000749031
0.000747798
0.000749105
0.000747731
0.000745558
0.000745846
0.000748497
0.000753468
0.000760583
0.000769625
0.000770909
0.000775131
0.000782067
0.000791835
0.000804307
0.0008193
0.0008368
0.000856189
0.000873905
0.000892998
0.000915101
0.000941097
0.000967999
0.000997914
0.00103094
0.00105445
0.00107903
0.00109444
0.00109104
1.42762e-05
4.20281e-05
7.42928e-05
0.000149839
0.000266953
0.000405747
0.000520795
0.000608945
0.000680891
0.000736676
0.000776778
0.000808403
0.000832439
0.000851059
0.000866164
0.000881064
0.000888004
0.000884185
0.000878432
0.000873091
0.000868501
0.000865596
0.00086415
0.000864438
0.000864593
0.000863633
0.000864739
0.000867786
0.00087278
0.000879483
0.000888139
0.000888416
0.000889928
0.000894047
0.00090092
0.000910265
0.000922121
0.000935899
0.000951865
0.000969476
0.000987698
0.00100605
0.00102638
0.00104718
0.00107112
0.00109337
0.00110592
0.0011159
0.00110628
0.00105772
5.72031e-06
1.97313e-05
3.52299e-05
6.12312e-05
0.00011089
0.000202507
0.000316204
0.000439749
0.000556573
0.000655581
0.000733461
0.000793146
0.000840046
0.000875085
0.000904411
0.000926075
0.00093991
0.000948657
0.000954773
0.00095912
0.000962003
0.000964641
0.000967225
0.000970492
0.000974156
0.000977541
0.000981743
0.000986889
0.000993251
0.00100045
0.0010084
0.00100572
0.00100542
0.00100689
0.00101074
0.00101674
0.00102463
0.00103396
0.00104511
0.00105726
0.00107071
0.00108434
0.00109849
0.00111204
0.0011271
0.00113613
0.00113731
0.0011333
0.00109983
0.00100574
2.93589e-06
1.0584e-05
1.98338e-05
3.20124e-05
5.0969e-05
8.1211e-05
0.000131198
0.000210934
0.00031831
0.000422522
0.000523365
0.000614338
0.000692027
0.000762777
0.000822263
0.000872179
0.000911271
0.000942682
0.000968202
0.00098882
0.00100491
0.0010176
0.00102852
0.00103842
0.00104866
0.00106042
0.00107104
0.00108118
0.00109136
0.0011015
0.00110151
0.00109974
0.00109913
0.00109952
0.00110135
0.00110437
0.0011086
0.00111409
0.00111979
0.00112641
0.00113322
0.00113975
0.00114549
0.00114979
0.00115362
0.00115089
0.00114313
0.00112498
0.00106546
0.000930612
1.80209e-06
6.45321e-06
1.21426e-05
1.94777e-05
2.88981e-05
4.18676e-05
6.02009e-05
8.71862e-05
0.0001272
0.000184765
0.000261373
0.000352692
0.000450933
0.000536093
0.000615914
0.000688732
0.000753458
0.000810344
0.000860079
0.000904735
0.000941877
0.000973675
0.00100116
0.0010245
0.00104988
0.00107347
0.00109491
0.00111484
0.0011242
0.00112943
0.00113375
0.00113699
0.00113961
0.00114198
0.00114422
0.00114646
0.00114864
0.00115096
0.00115248
0.00115338
0.00115396
0.00115378
0.00115147
0.00114827
0.00114188
0.00112886
0.00111282
0.0010759
0.000995861
0.000832215
1.22172e-06
4.289e-06
8.01209e-06
1.25691e-05
1.82973e-05
2.56159e-05
3.43988e-05
4.6206e-05
6.1664e-05
8.24842e-05
0.000109965
0.00014555
0.000192499
0.000250936
0.000318605
0.000391854
0.000467023
0.000541302
0.000611302
0.000676181
0.00073421
0.000785701
0.000830949
0.000874183
0.000912399
0.000946884
0.000978569
0.0010053
0.00102848
0.00104831
0.00106424
0.00107804
0.00108914
0.00109748
0.00110392
0.0011088
0.00111177
0.00111359
0.00111391
0.00111255
0.00111008
0.00110536
0.00109756
0.00108772
0.00107478
0.00105488
0.00103043
0.000977375
0.000888401
0.000711538
8.72499e-07
3.0035e-06
5.55955e-06
8.60655e-06
1.22635e-05
1.67036e-05
2.2163e-05
2.87308e-05
3.63793e-05
4.60295e-05
5.70684e-05
7.01637e-05
8.70093e-05
0.000108532
0.000135887
0.00017
0.00021126
0.000259136
0.000312067
0.000368051
0.000424566
0.000480205
0.000535238
0.000588602
0.000639424
0.000687354
0.000732168
0.000773702
0.000812015
0.000845762
0.000875605
0.000902151
0.00092378
0.000942218
0.000956684
0.000967969
0.000976277
0.000982058
0.000984985
0.000985344
0.000983809
0.000978772
0.000971018
0.00096011
0.000945195
0.00092355
0.000893548
0.000834105
0.000748004
0.000572757
6.37238e-07
2.16116e-06
3.96804e-06
6.09017e-06
8.57714e-06
1.14976e-05
1.4941e-05
1.90199e-05
2.38755e-05
2.93414e-05
3.46522e-05
4.09322e-05
4.84067e-05
5.72869e-05
6.7904e-05
8.07409e-05
9.65912e-05
0.000115752
0.000137038
0.000161738
0.000190928
0.000224649
0.000262195
0.000302982
0.000346029
0.000390435
0.000435371
0.000480272
0.000523811
0.000564808
0.000602492
0.000636743
0.000667346
0.000694092
0.000717097
0.000736678
0.000752482
0.000765235
0.000774951
0.000781548
0.00078543
0.000785314
0.000782438
0.000775844
0.000764194
0.000745468
0.000716778
0.000664414
0.000585271
0.000425182
4.66631e-07
1.56759e-06
2.86275e-06
4.37205e-06
6.12088e-06
8.14134e-06
1.04728e-05
1.31619e-05
1.61718e-05
1.92812e-05
2.27568e-05
2.66533e-05
3.08015e-05
3.53224e-05
4.05097e-05
4.64572e-05
5.32884e-05
6.00364e-05
6.71704e-05
7.55144e-05
8.58928e-05
9.80967e-05
0.000113074
0.000130525
0.000151528
0.000175704
0.00020284
0.000232551
0.000264007
0.00029635
0.00032865
0.00036015
0.000390138
0.000418336
0.000445128
0.00046971
0.000491876
0.000511366
0.000528297
0.000542175
0.000553268
0.000560891
0.000565335
0.000564626
0.000559478
0.000547813
0.000525239
0.000483365
0.000413738
0.000283173
3.36973e-07
1.12732e-06
2.05513e-06
3.13481e-06
4.3824e-06
5.81564e-06
7.45468e-06
9.19812e-06
1.1077e-05
1.31323e-05
1.5378e-05
1.78315e-05
2.05166e-05
2.34611e-05
2.6698e-05
3.01138e-05
3.32723e-05
3.58601e-05
3.87078e-05
4.18649e-05
4.53647e-05
4.97116e-05
5.48862e-05
6.08935e-05
6.82234e-05
7.74e-05
8.77635e-05
0.000100758
0.000114965
0.000130522
0.000147185
0.000166403
0.000186204
0.000207361
0.000228409
0.000249815
0.000270382
0.000291157
0.000310574
0.000328417
0.000344854
0.000356537
0.000364956
0.000368784
0.000367784
0.000361773
0.00034559
0.000311655
0.000256534
0.000161709
2.35274e-07
7.88837e-07
1.44282e-06
2.20898e-06
3.07931e-06
4.05136e-06
5.13265e-06
6.32415e-06
7.62658e-06
9.04145e-06
1.05719e-05
1.22216e-05
1.39972e-05
1.59072e-05
1.79626e-05
1.99608e-05
2.13891e-05
2.28013e-05
2.42049e-05
2.55749e-05
2.70428e-05
2.86429e-05
3.04189e-05
3.24234e-05
3.47282e-05
3.68634e-05
3.97306e-05
4.3092e-05
4.70661e-05
5.28798e-05
5.9902e-05
6.79006e-05
7.81361e-05
8.91463e-05
0.000101528
0.000115135
0.000128936
0.000144008
0.000158998
0.000173306
0.000187593
0.000200883
0.000212702
0.000217044
0.000217162
0.000212147
0.000197239
0.000170217
0.000131511
7.32217e-05
1.49677e-07
5.07831e-07
9.36393e-07
1.44126e-06
2.02571e-06
2.69103e-06
3.43719e-06
4.26334e-06
5.16836e-06
6.15065e-06
7.21005e-06
8.34665e-06
9.56016e-06
1.08525e-05
1.19685e-05
1.28395e-05
1.36615e-05
1.44302e-05
1.51426e-05
1.57988e-05
1.63969e-05
1.69412e-05
1.74434e-05
1.76773e-05
1.78883e-05
1.81394e-05
1.85182e-05
1.91171e-05
2.00477e-05
2.19169e-05
2.48773e-05
2.85855e-05
3.29949e-05
3.86091e-05
4.52387e-05
5.23584e-05
5.98684e-05
6.8295e-05
7.70175e-05
8.55664e-05
9.38627e-05
0.000101541
0.000108129
0.000112687
0.000111171
0.000104819
9.26572e-05
7.50804e-05
5.16151e-05
2.60887e-05
8.02532e-08
2.86675e-07
5.4769e-07
8.66864e-07
1.24571e-06
1.68421e-06
2.18201e-06
2.73805e-06
3.35067e-06
4.01833e-06
4.73957e-06
5.51383e-06
6.21218e-06
6.8028e-06
7.35993e-06
7.87526e-06
8.34136e-06
8.75066e-06
9.09649e-06
9.37235e-06
9.57368e-06
9.49441e-06
9.24736e-06
8.89431e-06
8.4572e-06
7.97554e-06
7.55435e-06
7.51248e-06
7.71924e-06
8.29483e-06
9.36685e-06
1.09552e-05
1.30231e-05
1.58604e-05
1.93611e-05
2.32015e-05
2.72962e-05
3.15293e-05
3.57767e-05
3.98659e-05
4.36326e-05
4.67932e-05
4.89371e-05
4.9503e-05
4.71734e-05
4.19948e-05
3.46734e-05
2.55168e-05
1.5457e-05
7.23155e-06
2.64692e-08
1.17595e-07
2.56739e-07
4.36348e-07
6.55983e-07
9.15763e-07
1.217e-06
1.55921e-06
1.90403e-06
2.24746e-06
2.59709e-06
2.94616e-06
3.28759e-06
3.61397e-06
3.91661e-06
4.18632e-06
4.41438e-06
4.59312e-06
4.66686e-06
4.58922e-06
4.42134e-06
4.17244e-06
3.81664e-06
3.37692e-06
2.87728e-06
2.31454e-06
2.07553e-06
2.20407e-06
2.39366e-06
2.65655e-06
3.03242e-06
3.67315e-06
4.39012e-06
5.16848e-06
6.85531e-06
8.77824e-06
1.08263e-05
1.29087e-05
1.48727e-05
1.65263e-05
1.77894e-05
1.84738e-05
1.8587e-05
1.76505e-05
1.56889e-05
1.28213e-05
9.34551e-06
6.0571e-06
3.3164e-06
1.45594e-06
1.06599e-09
2.11265e-08
5.37844e-08
9.47013e-08
1.45182e-07
2.04259e-07
2.72013e-07
3.43251e-07
4.15049e-07
4.85826e-07
5.52106e-07
6.10072e-07
6.55864e-07
6.86562e-07
6.99884e-07
6.88011e-07
6.42784e-07
5.58899e-07
4.52915e-07
4.52902e-07
4.46658e-07
4.34074e-07
4.15913e-07
3.94525e-07
3.73417e-07
3.57201e-07
3.52218e-07
3.64045e-07
3.95348e-07
4.48762e-07
5.26514e-07
6.26262e-07
7.43472e-07
8.73569e-07
1.01033e-06
1.14543e-06
1.26923e-06
1.37146e-06
1.44021e-06
1.46522e-06
1.43918e-06
1.71612e-06
1.89481e-06
1.86337e-06
1.65674e-06
1.32985e-06
9.35961e-07
5.9006e-07
3.1374e-07
1.64987e-07
)
;

boundaryField
{
    AXIS
    {
        type            empty;
    }
    OUTLET
    {
        type            calculated;
        value           nonuniform List<scalar> 
25
(
0.00103071
0.00103698
0.00105036
0.00106828
0.00108797
0.0011054
0.00111745
0.0011204
0.00112047
0.00111097
0.00109104
0.00105772
0.00100574
0.000930612
0.000832215
0.000711538
0.000572757
0.000425182
0.000283173
0.000161709
7.32217e-05
2.60887e-05
7.23155e-06
1.45594e-06
1.64987e-07
)
;
    }
    COFLOW
    {
        type            calculated;
        value           uniform 0;
    }
    PILOT
    {
        type            calculated;
        value           uniform 0.00267186;
    }
    FUEL
    {
        type            calculated;
        value           uniform 0;
    }
    WALL
    {
        type            calculated;
        value           nonuniform List<scalar> 
50
(
1.06599e-09
2.11265e-08
5.37844e-08
9.47013e-08
1.45182e-07
2.04259e-07
2.72013e-07
3.43251e-07
4.15049e-07
4.85826e-07
5.52106e-07
6.10072e-07
6.55864e-07
6.86562e-07
6.99884e-07
6.88011e-07
6.42784e-07
5.58899e-07
4.52915e-07
4.52902e-07
4.46658e-07
4.34074e-07
4.15913e-07
3.94525e-07
3.73417e-07
3.57201e-07
3.52218e-07
3.64045e-07
3.95348e-07
4.48762e-07
5.26514e-07
6.26262e-07
7.43472e-07
8.73569e-07
1.01033e-06
1.14543e-06
1.26923e-06
1.37146e-06
1.44021e-06
1.46522e-06
1.43918e-06
1.71612e-06
1.89481e-06
1.86337e-06
1.65674e-06
1.32985e-06
9.35961e-07
5.9006e-07
3.1374e-07
1.64987e-07
)
;
    }
    front
    {
        type            wedge;
    }
    back
    {
        type            wedge;
    }
}


// ************************************************************************* //
