/*--------------------------------*- C++ -*----------------------------------*\
| =========                 |                                                 |
| \\      /  F ield         | OpenFOAM: The Open Source CFD Toolbox           |
|  \\    /   O peration     | Version:  2.4.x                                 |
|   \\  /    A nd           | Web:      www.OpenFOAM.org                      |
|    \\/     M anipulation  |                                                 |
\*---------------------------------------------------------------------------*/
FoamFile
{
    version     2.0;
    format      ascii;
    class       surfaceScalarField;
    location    "0.1";
    object      phi;
}
// * * * * * * * * * * * * * * * * * * * * * * * * * * * * * * * * * * * * * //

dimensions      [1 0 -1 0 0 0 0];

internalField   nonuniform List<scalar> 
2425
(
1.06633e-06
-1.55498e-08
1.03587e-06
3.04561e-08
9.77156e-07
5.87183e-08
9.10514e-07
6.66416e-08
8.44525e-07
6.59887e-08
7.82363e-07
6.21618e-08
7.28264e-07
5.40972e-08
6.7844e-07
4.98224e-08
6.32366e-07
4.6073e-08
5.8766e-07
4.4706e-08
5.47187e-07
4.04722e-08
5.1231e-07
3.48755e-08
4.79642e-07
3.26675e-08
4.51046e-07
2.85973e-08
4.24612e-07
2.6434e-08
4.01286e-07
2.3327e-08
3.80097e-07
2.11884e-08
3.61337e-07
1.87585e-08
3.439e-07
1.7435e-08
3.27769e-07
1.61317e-08
3.13334e-07
1.44364e-08
2.99665e-07
1.36697e-08
2.87099e-07
1.25642e-08
2.75574e-07
1.15241e-08
2.64061e-07
1.15133e-08
2.53469e-07
1.05934e-08
2.43549e-07
9.91919e-09
2.34536e-07
9.01329e-09
2.2611e-07
8.4254e-09
2.18411e-07
7.70093e-09
2.11168e-07
7.2425e-09
2.04535e-07
6.63268e-09
1.98429e-07
6.10647e-09
1.92871e-07
5.55971e-09
1.87569e-07
5.30265e-09
1.82618e-07
4.95266e-09
1.78029e-07
4.59203e-09
1.73641e-07
4.39e-09
1.69558e-07
4.08687e-09
1.65623e-07
3.93752e-09
1.61892e-07
3.73185e-09
1.58306e-07
3.59258e-09
1.54796e-07
3.50596e-09
1.51239e-07
3.56249e-09
1.47564e-07
3.67823e-09
1.43619e-07
3.92533e-09
1.39359e-07
4.30538e-09
1.35032e-07
4.41196e-09
1.2576e-07
9.49506e-09
7.52774e-09
3.2121e-06
-7.53892e-08
3.07411e-06
1.6844e-07
2.87661e-06
2.56213e-07
2.67197e-06
2.71281e-07
2.47413e-06
2.63826e-07
2.29557e-06
2.40726e-07
2.13633e-06
2.1333e-07
1.98891e-06
1.97238e-07
1.84763e-06
1.87352e-07
1.71928e-06
1.73054e-07
1.60392e-06
1.55836e-07
1.50129e-06
1.37501e-07
1.40857e-06
1.25388e-07
1.32526e-06
1.11908e-07
1.25002e-06
1.01677e-07
1.18168e-06
9.16612e-08
1.12103e-06
8.18414e-08
1.0661e-06
7.36856e-08
1.01594e-06
6.75881e-08
9.69597e-07
6.24782e-08
9.26813e-07
5.72243e-08
8.87234e-07
5.32501e-08
8.50953e-07
4.88432e-08
8.17402e-07
4.50718e-08
7.84604e-07
4.43133e-08
7.53209e-07
4.1991e-08
7.24345e-07
3.87824e-08
6.9762e-07
3.57373e-08
6.73003e-07
3.3044e-08
6.50145e-07
3.05607e-08
6.2895e-07
2.84376e-08
6.09247e-07
2.63356e-08
5.91289e-07
2.40652e-08
5.74748e-07
2.21032e-08
5.59196e-07
2.08592e-08
5.44656e-07
1.94975e-08
5.30999e-07
1.8258e-08
5.18106e-07
1.72874e-08
5.05952e-07
1.62512e-08
4.94381e-07
1.55161e-08
4.8337e-07
1.47464e-08
4.72729e-07
1.42527e-08
4.62378e-07
1.3848e-08
4.5186e-07
1.40973e-08
4.40995e-07
1.45519e-08
4.29331e-07
1.55321e-08
4.16596e-07
1.71719e-08
4.03997e-07
1.72703e-08
3.76836e-07
3.74488e-08
2.95888e-08
5.25935e-06
-8.03354e-08
4.91755e-06
5.10234e-07
4.54298e-06
6.30779e-07
4.19991e-06
6.14352e-07
3.89376e-06
5.69978e-07
3.61926e-06
5.15226e-07
3.35712e-06
4.75459e-07
3.11468e-06
4.3967e-07
2.89896e-06
4.03075e-07
2.70598e-06
3.66027e-07
2.53245e-06
3.29364e-07
2.37712e-06
2.92825e-07
2.23757e-06
2.64936e-07
2.11122e-06
2.38269e-07
1.99661e-06
2.16283e-07
1.89255e-06
1.95725e-07
1.79936e-06
1.75037e-07
1.71509e-06
1.5795e-07
1.63755e-06
1.45124e-07
1.56558e-06
1.34445e-07
1.49887e-06
1.23942e-07
1.43714e-06
1.14984e-07
1.38053e-06
1.05451e-07
1.32905e-06
9.65456e-08
1.27914e-06
9.42319e-08
1.23003e-06
9.11053e-08
1.18408e-06
8.47284e-08
1.14151e-06
7.83026e-08
1.10214e-06
7.24176e-08
1.06555e-06
6.71542e-08
1.03157e-06
6.24243e-08
9.99982e-07
5.79208e-08
9.70971e-07
5.30745e-08
9.44349e-07
4.87305e-08
9.19453e-07
4.57632e-08
8.96077e-07
4.28826e-08
8.74117e-07
4.02331e-08
8.5337e-07
3.80441e-08
8.338e-07
3.58387e-08
8.15145e-07
3.41835e-08
7.97352e-07
3.25486e-08
7.80203e-07
3.1434e-08
7.63432e-07
3.06047e-08
7.46442e-07
3.11178e-08
7.28799e-07
3.22085e-08
7.09977e-07
3.42786e-08
6.89461e-07
3.79059e-08
6.68991e-07
3.82105e-08
6.24684e-07
8.31111e-08
6.53034e-08
6.93623e-06
3.4223e-07
6.23798e-06
1.20847e-06
5.70235e-06
1.1664e-06
5.27754e-06
1.03916e-06
4.8842e-06
9.63319e-07
4.52354e-06
8.75876e-07
4.20792e-06
7.91073e-07
3.92975e-06
7.17832e-07
3.68087e-06
6.51958e-07
3.4575e-06
5.89395e-07
3.25657e-06
5.30295e-07
3.07481e-06
4.74572e-07
2.90898e-06
4.30764e-07
2.75756e-06
3.89698e-07
2.61968e-06
3.54164e-07
2.49398e-06
3.21429e-07
2.38025e-06
2.88771e-07
2.27595e-06
2.62248e-07
2.17922e-06
2.41851e-07
2.08924e-06
2.24423e-07
2.00545e-06
2.07734e-07
1.92771e-06
1.9273e-07
1.85644e-06
1.76723e-07
1.79106e-06
1.6192e-07
1.73028e-06
1.55018e-07
1.6699e-06
1.51487e-07
1.60997e-06
1.44664e-07
1.55434e-06
1.33932e-07
1.50264e-06
1.24115e-07
1.45458e-06
1.15216e-07
1.40995e-06
1.07064e-07
1.3683e-06
9.95688e-08
1.32963e-06
9.17354e-08
1.29419e-06
8.41765e-08
1.26131e-06
7.86562e-08
1.23037e-06
7.38381e-08
1.20128e-06
6.93439e-08
1.17376e-06
6.55749e-08
1.14776e-06
6.18671e-08
1.12293e-06
5.90298e-08
1.09924e-06
5.62516e-08
1.07636e-06
5.43586e-08
1.05393e-06
5.30216e-08
1.03124e-06
5.38656e-08
1.00751e-06
5.59554e-08
9.8224e-07
5.94569e-08
9.54395e-07
6.60651e-08
9.26281e-07
6.71085e-08
8.66581e-07
1.44808e-07
1.1422e-07
7.10429e-06
2.70135e-06
6.29899e-06
2.01377e-06
5.887e-06
1.57837e-06
5.49673e-06
1.42943e-06
5.16814e-06
1.2919e-06
4.87714e-06
1.16687e-06
4.60984e-06
1.05837e-06
4.36385e-06
9.63812e-07
4.13543e-06
8.80377e-07
3.92593e-06
7.98891e-07
3.73359e-06
7.22629e-07
3.5549e-06
6.5325e-07
3.3896e-06
5.96073e-07
3.23595e-06
5.43354e-07
3.09241e-06
4.97701e-07
2.96017e-06
4.53662e-07
2.83927e-06
4.09678e-07
2.72651e-06
3.75011e-07
2.62125e-06
3.47107e-07
2.52263e-06
3.23041e-07
2.43028e-06
3.0009e-07
2.34396e-06
2.79055e-07
2.26425e-06
2.56437e-07
2.19057e-06
2.35596e-07
2.12169e-06
2.23898e-07
2.0568e-06
2.16385e-07
1.99128e-06
2.10181e-07
1.92605e-06
1.99164e-07
1.86548e-06
1.84686e-07
1.80896e-06
1.71744e-07
1.75616e-06
1.59865e-07
1.7068e-06
1.48918e-07
1.66047e-06
1.38064e-07
1.61779e-06
1.26861e-07
1.57868e-06
1.17776e-07
1.5419e-06
1.10639e-07
1.50722e-06
1.04047e-07
1.47434e-06
9.84728e-08
1.44318e-06
9.30587e-08
1.41342e-06
8.88126e-08
1.38499e-06
8.47117e-08
1.35743e-06
8.19662e-08
1.33031e-06
8.01394e-08
1.3029e-06
8.13513e-08
1.27395e-06
8.49382e-08
1.24335e-06
8.99845e-08
1.20896e-06
1.00888e-07
1.17358e-06
1.03565e-07
1.10057e-06
2.20523e-07
1.75205e-07
3.30821e-06
-3.30557e-09
4.34732e-06
9.74641e-07
4.69965e-06
1.22601e-06
4.76417e-06
1.3649e-06
4.72608e-06
1.32998e-06
4.63104e-06
1.26191e-06
4.50402e-06
1.18538e-06
4.36429e-06
1.10354e-06
4.22316e-06
1.0215e-06
4.08525e-06
9.36804e-07
3.94938e-06
8.58491e-07
3.81324e-06
7.89378e-07
3.67526e-06
7.34057e-07
3.53689e-06
6.81728e-07
3.40473e-06
6.29857e-07
3.28133e-06
5.77055e-07
3.16692e-06
5.24099e-07
3.05814e-06
4.83793e-07
2.955e-06
4.50239e-07
2.85737e-06
4.20676e-07
2.76504e-06
3.92419e-07
2.67786e-06
3.66241e-07
2.59618e-06
3.3812e-07
2.51995e-06
3.1182e-07
2.44822e-06
2.95632e-07
2.38077e-06
2.83847e-07
2.31594e-06
2.75009e-07
2.24962e-06
2.65482e-07
2.18358e-06
2.50735e-07
2.1219e-06
2.33421e-07
2.06437e-06
2.17392e-07
2.01032e-06
2.0296e-07
1.95921e-06
1.89171e-07
1.91116e-06
1.74906e-07
1.86705e-06
1.61904e-07
1.82636e-06
1.51353e-07
1.78786e-06
1.42577e-07
1.75126e-06
1.35093e-07
1.71656e-06
1.27799e-07
1.68331e-06
1.22094e-07
1.65146e-06
1.16598e-07
1.62048e-06
1.13017e-07
1.58982e-06
1.10806e-07
1.55887e-06
1.12409e-07
1.52571e-06
1.18146e-07
1.49104e-06
1.24657e-07
1.45108e-06
1.41424e-07
1.40906e-06
1.46887e-07
1.3253e-06
3.08319e-07
2.46111e-07
1.5169e-06
-8.069e-07
2.61681e-06
-1.253e-07
3.33805e-06
5.04746e-07
3.76176e-06
9.41168e-07
3.98772e-06
1.10402e-06
4.09039e-06
1.15924e-06
4.12065e-06
1.15511e-06
4.10368e-06
1.1205e-06
4.05945e-06
1.06572e-06
3.99923e-06
9.97025e-07
3.92659e-06
9.31123e-07
3.84432e-06
8.71643e-07
3.75701e-06
8.21364e-07
3.66564e-06
7.73104e-07
3.56749e-06
7.28001e-07
3.46557e-06
6.78953e-07
3.36814e-06
6.21541e-07
3.27366e-06
5.78284e-07
3.18218e-06
5.4172e-07
3.09422e-06
5.08626e-07
3.00969e-06
4.76957e-07
2.9281e-06
4.47827e-07
2.85013e-06
4.16097e-07
2.77678e-06
3.85167e-07
2.70748e-06
3.64937e-07
2.64146e-06
3.49874e-07
2.57873e-06
3.37737e-07
2.51686e-06
3.27365e-07
2.4531e-06
3.14491e-07
2.39005e-06
2.96471e-07
2.33083e-06
2.766e-07
2.27494e-06
2.58835e-07
2.22188e-06
2.42225e-07
2.17145e-06
2.25324e-07
2.12432e-06
2.09044e-07
2.08101e-06
1.9469e-07
2.04062e-06
1.83003e-07
2.0021e-06
1.73642e-07
1.96543e-06
1.64515e-07
1.93021e-06
1.57348e-07
1.8964e-06
1.5047e-07
1.86339e-06
1.46098e-07
1.83052e-06
1.43725e-07
1.79731e-06
1.45768e-07
1.76108e-06
1.54452e-07
1.72382e-06
1.62018e-07
1.67926e-06
1.86741e-07
1.63134e-06
1.96409e-07
1.53966e-06
4.05483e-07
3.25767e-07
9.36386e-07
-9.20164e-07
1.58891e-06
-7.77848e-07
2.29611e-06
-2.02487e-07
2.84606e-06
3.91205e-07
3.22094e-06
7.29124e-07
3.46e-06
9.20171e-07
3.61145e-06
1.00365e-06
3.69994e-06
1.032e-06
3.74704e-06
1.01861e-06
3.76501e-06
9.79054e-07
3.75891e-06
9.37213e-07
3.73456e-06
8.95982e-07
3.69772e-06
8.58207e-07
3.65195e-06
8.18878e-07
3.59997e-06
7.79961e-07
3.53565e-06
7.4325e-07
3.46284e-06
6.9436e-07
3.38971e-06
6.51431e-07
3.31631e-06
6.15119e-07
3.24316e-06
5.81761e-07
3.17079e-06
5.49334e-07
3.0998e-06
5.18816e-07
3.03015e-06
4.85746e-07
2.96362e-06
4.51697e-07
2.90096e-06
4.27594e-07
2.8408e-06
4.10039e-07
2.783e-06
3.95538e-07
2.72724e-06
3.83133e-07
2.67046e-06
3.71282e-07
2.6115e-06
3.55419e-07
2.55413e-06
3.33948e-07
2.4996e-06
3.13345e-07
2.44728e-06
2.94525e-07
2.39726e-06
2.7534e-07
2.34955e-06
2.56765e-07
2.30505e-06
2.39209e-07
2.2642e-06
2.23881e-07
2.22566e-06
2.12225e-07
2.18878e-06
2.01445e-07
2.15318e-06
1.93008e-07
2.11883e-06
1.84907e-07
2.08509e-06
1.79946e-07
2.05134e-06
1.77581e-07
2.01714e-06
1.80178e-07
1.97918e-06
1.9254e-07
1.94081e-06
2.00721e-07
1.89284e-06
2.35678e-07
1.84021e-06
2.51271e-07
1.74358e-06
5.10059e-07
4.12553e-07
7.95834e-07
-7.83091e-07
1.04917e-06
-1.03119e-06
1.59987e-06
-7.53195e-07
2.13892e-06
-1.47855e-07
2.5605e-06
3.07533e-07
2.87406e-06
6.06609e-07
3.1005e-06
7.772e-07
3.26327e-06
8.69222e-07
3.38e-06
9.01881e-07
3.46109e-06
8.97957e-07
3.51188e-06
8.86416e-07
3.53956e-06
8.68294e-07
3.54961e-06
8.48154e-07
3.54585e-06
8.22643e-07
3.53119e-06
7.94605e-07
3.50432e-06
7.70097e-07
3.46489e-06
7.33781e-07
3.4169e-06
6.99444e-07
3.36548e-06
6.66539e-07
3.31171e-06
6.35521e-07
3.2565e-06
6.04537e-07
3.20052e-06
5.74796e-07
3.14341e-06
5.42847e-07
3.08771e-06
5.07398e-07
3.03512e-06
4.80178e-07
2.98382e-06
4.61345e-07
2.93401e-06
4.45346e-07
2.88542e-06
4.31727e-07
2.83783e-06
4.18873e-07
2.78746e-06
4.05782e-07
2.73491e-06
3.8647e-07
2.68447e-06
3.6375e-07
2.63567e-06
3.43296e-07
2.5886e-06
3.22396e-07
2.54334e-06
3.02025e-07
2.49974e-06
2.82835e-07
2.45918e-06
2.64483e-07
2.42193e-06
2.49527e-07
2.38639e-06
2.37058e-07
2.35184e-06
2.27645e-07
2.31843e-06
2.18436e-07
2.28554e-06
2.12985e-07
2.25239e-06
2.10913e-07
2.21868e-06
2.14177e-07
2.18022e-06
2.31253e-07
2.14206e-06
2.39465e-07
2.09203e-06
2.86964e-07
2.03601e-06
3.1024e-07
1.93761e-06
6.18358e-07
5.02671e-07
9.55027e-07
-6.95414e-07
9.75513e-07
-1.05165e-06
1.27317e-06
-1.05083e-06
1.67814e-06
-5.52825e-07
2.06612e-06
-8.04419e-08
2.38971e-06
2.83005e-07
2.64975e-06
5.17156e-07
2.85077e-06
6.68202e-07
3.0018e-06
7.50842e-07
3.11367e-06
7.86081e-07
3.19745e-06
8.02622e-07
3.25878e-06
8.06969e-07
3.30267e-06
8.04257e-07
3.33352e-06
7.91789e-07
3.35747e-06
7.70646e-07
3.37177e-06
7.55756e-07
3.37109e-06
7.3446e-07
3.35581e-06
7.14734e-07
3.33258e-06
6.89773e-07
3.30398e-06
6.64106e-07
3.27139e-06
6.37123e-07
3.23625e-06
6.09931e-07
3.1984e-06
5.80687e-07
3.15834e-06
5.47444e-07
3.11801e-06
5.20503e-07
3.07771e-06
5.01638e-07
3.0379e-06
4.85148e-07
2.99856e-06
4.71052e-07
2.95946e-06
4.57959e-07
2.9192e-06
4.46023e-07
2.87625e-06
4.29372e-07
2.83227e-06
4.07671e-07
2.78914e-06
3.86391e-07
2.74697e-06
3.64546e-07
2.70602e-06
3.4298e-07
2.66639e-06
3.22497e-07
2.62803e-06
3.02896e-07
2.59233e-06
2.85334e-07
2.55927e-06
2.70213e-07
2.5273e-06
2.59747e-07
2.49629e-06
2.49623e-07
2.46561e-06
2.43893e-07
2.4342e-06
2.4263e-07
2.40193e-06
2.46864e-07
2.36434e-06
2.69325e-07
2.32745e-06
2.77313e-07
2.27662e-06
3.39431e-07
2.21913e-06
3.71801e-07
2.12155e-06
7.29081e-07
5.9883e-07
1.81773e-06
-1.48234e-07
1.53068e-06
-7.64549e-07
1.41542e-06
-9.35499e-07
1.56632e-06
-7.03692e-07
1.85019e-06
-3.64289e-07
2.14599e-06
-1.27964e-08
2.41208e-06
2.51064e-07
2.64109e-06
4.39186e-07
2.83085e-06
5.61082e-07
2.97559e-06
6.41335e-07
3.08522e-06
6.92994e-07
3.17188e-06
7.20301e-07
3.24052e-06
7.35613e-07
3.29469e-06
7.37618e-07
3.34382e-06
7.21505e-07
3.38661e-06
7.12945e-07
3.41666e-06
7.04396e-07
3.43254e-06
6.98861e-07
3.4379e-06
6.84403e-07
3.43522e-06
6.66772e-07
3.42589e-06
6.46441e-07
3.41147e-06
6.24344e-07
3.39217e-06
5.99968e-07
3.36767e-06
5.71918e-07
3.3401e-06
5.48053e-07
3.31136e-06
5.30349e-07
3.28185e-06
5.1463e-07
3.25161e-06
5.01262e-07
3.22083e-06
4.88699e-07
3.18972e-06
4.77078e-07
3.15535e-06
4.63659e-07
3.11787e-06
4.4508e-07
3.0804e-06
4.23798e-07
3.04311e-06
4.018e-07
3.00644e-06
3.7966e-07
2.97055e-06
3.58428e-07
2.93541e-06
3.38135e-07
2.9014e-06
3.19503e-07
2.86939e-06
3.02448e-07
2.83934e-06
2.90012e-07
2.81034e-06
2.78913e-07
2.78148e-06
2.73115e-07
2.75154e-06
2.73101e-07
2.72013e-06
2.78909e-07
2.68283e-06
3.07399e-07
2.64666e-06
3.14958e-07
2.59319e-06
3.95135e-07
2.53356e-06
4.37125e-07
2.43327e-06
8.48169e-07
7.03465e-07
2.75253e-06
3.48935e-08
2.41504e-06
-4.27028e-07
2.0546e-06
-5.75007e-07
1.90269e-06
-5.51733e-07
1.96782e-06
-4.29323e-07
2.15885e-06
-2.03795e-07
2.39156e-06
1.83782e-08
2.62299e-06
2.07768e-07
2.83037e-06
3.53703e-07
3.01247e-06
4.59236e-07
3.16872e-06
5.36745e-07
3.29986e-06
5.8915e-07
3.41023e-06
6.25242e-07
3.50257e-06
6.45269e-07
3.57489e-06
6.49179e-07
3.6278e-06
6.60045e-07
3.66934e-06
6.62844e-07
3.70548e-06
6.62718e-07
3.73414e-06
6.55729e-07
3.75448e-06
6.46405e-07
3.76728e-06
6.33616e-07
3.77334e-06
6.18251e-07
3.77307e-06
6.00201e-07
3.76604e-06
5.78896e-07
3.75405e-06
5.59977e-07
3.73917e-06
5.45163e-07
3.72206e-06
5.31662e-07
3.70322e-06
5.20006e-07
3.68275e-06
5.09069e-07
3.6612e-06
4.98524e-07
3.63647e-06
4.88282e-07
3.6077e-06
4.73717e-07
3.57736e-06
4.54042e-07
3.5462e-06
4.32913e-07
3.51488e-06
4.10989e-07
3.48359e-06
3.898e-07
3.45262e-06
3.69275e-07
3.42229e-06
3.50109e-07
3.39232e-06
3.3281e-07
3.36361e-06
3.1924e-07
3.33606e-06
3.06998e-07
3.30942e-06
3.00391e-07
3.2815e-06
3.01949e-07
3.25115e-06
3.10322e-07
3.21402e-06
3.46083e-07
3.17779e-06
3.53585e-07
3.11901e-06
4.57341e-07
3.056e-06
5.09118e-07
2.94917e-06
9.80801e-07
8.26556e-07
3.5821e-06
1.01729e-07
3.31357e-06
-1.58499e-07
2.99211e-06
-2.53532e-07
2.70805e-06
-2.67629e-07
2.53011e-06
-2.51268e-07
2.49596e-06
-1.69584e-07
2.57494e-06
-6.05413e-08
2.72273e-06
6.00304e-08
2.89982e-06
1.76634e-07
3.08021e-06
2.78865e-07
3.2477e-06
3.69266e-07
3.39787e-06
4.38977e-07
3.53294e-06
4.90172e-07
3.65227e-06
5.2593e-07
3.75388e-06
5.47556e-07
3.84212e-06
5.71804e-07
3.918e-06
5.8694e-07
3.98296e-06
5.97738e-07
4.03676e-06
6.01895e-07
4.08052e-06
6.02588e-07
4.11508e-06
5.98993e-07
4.14144e-06
5.91807e-07
4.16012e-06
5.8141e-07
4.1714e-06
5.67481e-07
4.17834e-06
5.52916e-07
4.1822e-06
5.41151e-07
4.18248e-06
5.31206e-07
4.17991e-06
5.22384e-07
4.17462e-06
5.14145e-07
4.16731e-06
5.05618e-07
4.15589e-06
4.9945e-07
4.13971e-06
4.89695e-07
4.1214e-06
4.72213e-07
4.10145e-06
4.52808e-07
4.08019e-06
4.32301e-07
4.05815e-06
4.12012e-07
4.03569e-06
3.92063e-07
4.0132e-06
3.73088e-07
3.99026e-06
3.56421e-07
3.96775e-06
3.42653e-07
3.94481e-06
3.31079e-07
3.92247e-06
3.24177e-07
3.89888e-06
3.27203e-07
3.87285e-06
3.38171e-07
3.83964e-06
3.8199e-07
3.80518e-06
3.92052e-07
3.74211e-06
5.25956e-07
3.67832e-06
5.87481e-07
3.56855e-06
1.1293e-06
9.70515e-07
4.53279e-06
1.10035e-07
4.36146e-06
1.27786e-08
4.12271e-06
-1.48198e-08
3.86565e-06
-1.05929e-08
3.60714e-06
7.24222e-09
3.39523e-06
4.23133e-08
3.2585e-06
7.62244e-08
3.2095e-06
1.09116e-07
3.23538e-06
1.50824e-07
3.31507e-06
1.99229e-07
3.42864e-06
2.55729e-07
3.55669e-06
3.1094e-07
3.68915e-06
3.57725e-07
3.81705e-06
3.98013e-07
3.93322e-06
4.3138e-07
4.04169e-06
4.63347e-07
4.14187e-06
4.86713e-07
4.23232e-06
5.07231e-07
4.31292e-06
5.21209e-07
4.38406e-06
5.31333e-07
4.44619e-06
5.36706e-07
4.4997e-06
5.38098e-07
4.5445e-06
5.36367e-07
4.58124e-06
5.30447e-07
4.61268e-06
5.21173e-07
4.6399e-06
5.13572e-07
4.66278e-06
5.07951e-07
4.68159e-06
5.03153e-07
4.69661e-06
4.98683e-07
4.70636e-06
4.95426e-07
4.71172e-06
4.93651e-07
4.71443e-06
4.86645e-07
4.71388e-06
4.72545e-07
4.71075e-06
4.55888e-07
4.70549e-06
4.37733e-07
4.69847e-06
4.19399e-07
4.6897e-06
4.01487e-07
4.68038e-06
3.83303e-07
4.66968e-06
3.68382e-07
4.65891e-06
3.55009e-07
4.64651e-06
3.45536e-07
4.63453e-06
3.38653e-07
4.61978e-06
3.45216e-07
4.60097e-06
3.60583e-07
4.57515e-06
4.13026e-07
4.54725e-06
4.27122e-07
4.48298e-06
6.00675e-07
4.41984e-06
6.7388e-07
4.31374e-06
1.29015e-06
1.13455e-06
5.66703e-06
1.00654e-07
5.56404e-06
1.15672e-07
5.40049e-06
1.48646e-07
5.20732e-06
1.82492e-07
4.99527e-06
2.19216e-07
4.77618e-06
2.61353e-07
4.5594e-06
2.93001e-07
4.35894e-06
3.09602e-07
4.1956e-06
3.14203e-07
4.08579e-06
3.09091e-07
4.03571e-06
3.05838e-07
4.04523e-06
3.01439e-07
4.09655e-06
3.06412e-07
4.17192e-06
3.22626e-07
4.26247e-06
3.40799e-07
4.36194e-06
3.63862e-07
4.46319e-06
3.85348e-07
4.56133e-06
4.08932e-07
4.65232e-06
4.2999e-07
4.73725e-06
4.46092e-07
4.81741e-06
4.56146e-07
4.89162e-06
4.63388e-07
4.95935e-06
4.68048e-07
5.02143e-06
4.67666e-07
5.07897e-06
4.62942e-07
5.1311e-06
4.60653e-07
5.17791e-06
4.60282e-07
5.21832e-06
4.61823e-07
5.25257e-06
4.63489e-07
5.2829e-06
4.64216e-07
5.31174e-06
4.64053e-07
5.3387e-06
4.59195e-07
5.36203e-06
4.48977e-07
5.38217e-06
4.35862e-07
5.39907e-06
4.21332e-07
5.41331e-06
4.0599e-07
5.42493e-06
3.91215e-07
5.43533e-06
3.74642e-07
5.44355e-06
3.62577e-07
5.45147e-06
3.50024e-07
5.45579e-06
3.44777e-07
5.46063e-06
3.38237e-07
5.46081e-06
3.50441e-07
5.45586e-06
3.71899e-07
5.44413e-06
4.33319e-07
5.42503e-06
4.57486e-07
5.36216e-06
6.81232e-07
5.30433e-06
7.71095e-07
5.21345e-06
1.46279e-06
1.31783e-06
7.06435e-06
9.21783e-08
7.00618e-06
1.73706e-07
6.90584e-06
2.48838e-07
6.773e-06
3.15187e-07
6.61418e-06
3.77886e-07
6.44354e-06
4.31842e-07
6.26055e-06
4.75848e-07
6.06001e-06
5.10004e-07
5.84953e-06
5.24544e-07
5.63487e-06
5.23616e-07
5.43062e-06
5.09977e-07
5.25529e-06
4.76632e-07
5.12129e-06
4.40286e-07
5.03523e-06
4.08508e-07
4.99932e-06
3.7652e-07
5.006e-06
3.56945e-07
5.04115e-06
3.49811e-07
5.09843e-06
3.51148e-07
5.17012e-06
3.57631e-07
5.24967e-06
3.65661e-07
5.33272e-06
3.72049e-07
5.41485e-06
3.80002e-07
5.49472e-06
3.86707e-07
5.57053e-06
3.90247e-07
5.64047e-06
3.91219e-07
5.70474e-06
3.9442e-07
5.76549e-06
3.97511e-07
5.82404e-06
4.01183e-07
5.88033e-06
4.05275e-07
5.93538e-06
4.07481e-07
5.99044e-06
4.07765e-07
6.044e-06
4.04924e-07
6.09504e-06
3.9784e-07
6.14338e-06
3.88107e-07
6.18833e-06
3.77656e-07
6.23073e-06
3.65579e-07
6.26973e-06
3.5511e-07
6.30633e-06
3.41542e-07
6.33977e-06
3.33591e-07
6.37254e-06
3.22512e-07
6.40093e-06
3.22636e-07
6.43042e-06
3.16476e-07
6.45216e-06
3.3796e-07
6.46905e-06
3.6579e-07
6.47708e-06
4.39812e-07
6.47346e-06
4.79196e-07
6.42404e-06
7.62206e-07
6.37613e-06
8.87955e-07
6.31368e-06
1.64762e-06
1.51778e-06
8.81282e-06
8.70755e-08
8.78411e-06
2.02219e-07
8.72782e-06
3.04933e-07
8.64626e-06
3.9653e-07
8.54245e-06
4.81456e-07
8.41784e-06
5.56195e-07
8.27511e-06
6.18267e-07
8.12067e-06
6.64106e-07
7.95005e-06
6.9476e-07
7.75723e-06
7.1596e-07
7.54896e-06
7.17802e-07
7.32439e-06
7.00653e-07
7.09106e-06
6.72982e-07
6.86599e-06
6.32795e-07
6.65977e-06
5.81828e-07
6.48432e-06
5.31269e-07
6.34564e-06
4.87047e-07
6.24916e-06
4.45816e-07
6.19582e-06
4.0874e-07
6.17896e-06
3.79809e-07
6.19104e-06
3.57015e-07
6.22477e-06
3.42809e-07
6.27328e-06
3.34295e-07
6.33117e-06
3.2812e-07
6.39467e-06
3.23224e-07
6.46219e-06
3.22272e-07
6.53211e-06
3.22958e-07
6.60325e-06
3.25582e-07
6.67643e-06
3.28211e-07
6.75211e-06
3.28679e-07
6.82968e-06
3.28202e-07
6.90874e-06
3.25146e-07
6.98757e-06
3.19565e-07
7.06504e-06
3.12543e-07
7.14055e-06
3.05282e-07
7.21428e-06
2.96268e-07
7.28447e-06
2.90746e-07
7.35304e-06
2.79895e-07
7.41807e-06
2.77082e-07
7.48167e-06
2.68505e-07
7.54084e-06
2.74547e-07
7.60145e-06
2.6898e-07
7.65083e-06
3.03826e-07
7.69226e-06
3.42861e-07
7.72144e-06
4.34786e-07
7.73633e-06
4.95828e-07
7.72e-06
8.33613e-07
7.69747e-06
1.01635e-06
7.69499e-06
1.84738e-06
1.77205e-06
1.10087e-05
8.202e-08
1.09997e-05
2.10934e-07
1.09753e-05
3.29021e-07
1.09342e-05
4.37331e-07
1.08769e-05
5.38493e-07
1.08017e-05
6.30989e-07
1.07068e-05
7.12639e-07
1.0591e-05
7.79382e-07
1.04546e-05
8.30381e-07
1.03082e-05
8.61661e-07
1.0149e-05
8.76112e-07
9.96681e-06
8.8172e-07
9.764e-06
8.74302e-07
9.54535e-06
8.49608e-07
9.31059e-06
8.14223e-07
9.06469e-06
7.74064e-07
8.81774e-06
7.30012e-07
8.58016e-06
6.78327e-07
8.36441e-06
6.18366e-07
8.17615e-06
5.60475e-07
8.01896e-06
5.05231e-07
7.89717e-06
4.54244e-07
7.81255e-06
4.07407e-07
7.76133e-06
3.67275e-07
7.73861e-06
3.33675e-07
7.73894e-06
3.09625e-07
7.7588e-06
2.91222e-07
7.795e-06
2.78433e-07
7.8471e-06
2.6704e-07
7.91444e-06
2.54756e-07
7.99472e-06
2.44377e-07
8.08447e-06
2.34659e-07
8.18033e-06
2.25593e-07
8.28023e-06
2.16785e-07
8.38174e-06
2.1011e-07
8.48404e-06
2.02122e-07
8.585e-06
1.99828e-07
8.68506e-06
1.91497e-07
8.78176e-06
1.94168e-07
8.87813e-06
1.8753e-07
8.97178e-06
1.98244e-07
9.06749e-06
1.93413e-07
9.1489e-06
2.45578e-07
9.22242e-06
2.99189e-07
9.27539e-06
4.21373e-07
9.32124e-06
5.05064e-07
9.35336e-06
8.96516e-07
9.37969e-06
1.16085e-06
9.52132e-06
2.046e-06
2.12552e-06
1.37644e-05
7.49574e-08
1.37704e-05
2.04542e-07
1.37712e-05
3.27892e-07
1.3763e-05
4.4513e-07
1.37441e-05
5.56966e-07
1.37126e-05
6.6194e-07
1.36661e-05
7.58458e-07
1.36013e-05
8.43432e-07
1.35173e-05
9.13521e-07
1.34125e-05
9.65417e-07
1.32857e-05
1.0015e-06
1.31438e-05
1.02173e-06
1.29917e-05
1.02403e-06
1.28244e-05
1.01371e-06
1.26393e-05
9.94952e-07
1.24361e-05
9.71564e-07
1.22203e-05
9.38074e-07
1.19961e-05
8.93797e-07
1.17567e-05
8.45921e-07
1.15073e-05
7.94033e-07
1.12544e-05
7.38069e-07
1.10047e-05
6.78923e-07
1.07676e-05
6.14875e-07
1.05512e-05
5.5059e-07
1.03621e-05
4.87651e-07
1.0203e-05
4.329e-07
1.00806e-05
3.79003e-07
9.99704e-06
3.29485e-07
9.95262e-06
2.83745e-07
9.9452e-06
2.41791e-07
9.97126e-06
2.05066e-07
1.00231e-05
1.75281e-07
1.00925e-05
1.5337e-07
1.0175e-05
1.35444e-07
1.02658e-05
1.23759e-07
1.03638e-05
1.11319e-07
1.04663e-05
1.07225e-07
1.05723e-05
9.76462e-08
1.06805e-05
1.00888e-07
1.07943e-05
9.08965e-08
1.09076e-05
1.06371e-07
1.10209e-05
1.05269e-07
1.11275e-05
1.72601e-07
1.12226e-05
2.53056e-07
1.12803e-05
4.27719e-07
1.13541e-05
5.29536e-07
1.14458e-05
9.73306e-07
1.16486e-05
1.26978e-06
1.21749e-05
2.15157e-06
2.70687e-06
1.72217e-05
6.50484e-08
1.72403e-05
1.85503e-07
1.72621e-05
3.05586e-07
1.72823e-05
4.24447e-07
1.72975e-05
5.41164e-07
1.73051e-05
6.53679e-07
1.73034e-05
7.59333e-07
1.72905e-05
8.55522e-07
1.72629e-05
9.40075e-07
1.7216e-05
1.01102e-06
1.71481e-05
1.06768e-06
1.70598e-05
1.10758e-06
1.6951e-05
1.12946e-06
1.68229e-05
1.13709e-06
1.66823e-05
1.1291e-06
1.65384e-05
1.10721e-06
1.63923e-05
1.07552e-06
1.62367e-05
1.03699e-06
1.60646e-05
1.00049e-06
1.58763e-05
9.58291e-07
1.56726e-05
9.09605e-07
1.54532e-05
8.56616e-07
1.52115e-05
8.03002e-07
1.49516e-05
7.44045e-07
1.46841e-05
6.77556e-07
1.44192e-05
6.11578e-07
1.41684e-05
5.37866e-07
1.39384e-05
4.63186e-07
1.37429e-05
3.87129e-07
1.3589e-05
3.12879e-07
1.34773e-05
2.44256e-07
1.34035e-05
1.87001e-07
1.33612e-05
1.42307e-07
1.33454e-05
1.05004e-07
1.33509e-05
7.94713e-08
1.33758e-05
5.38081e-08
1.34169e-05
4.09182e-08
1.34732e-05
2.18091e-08
1.35394e-05
2.22962e-08
1.36208e-05
4.26087e-09
1.37125e-05
1.84576e-08
1.38117e-05
2.90447e-08
1.39225e-05
1.06901e-07
1.40328e-05
2.23959e-07
1.41536e-05
4.2209e-07
1.42811e-05
5.85479e-07
1.45684e-05
1.01849e-06
1.51829e-05
1.29357e-06
1.64091e-05
2.24199e-06
3.9291e-06
2.15597e-05
5.21869e-08
2.15889e-05
1.55747e-07
2.16287e-05
2.65137e-07
2.16741e-05
3.78395e-07
2.17215e-05
4.9321e-07
2.17677e-05
6.068e-07
2.18101e-05
7.16203e-07
2.1846e-05
8.18669e-07
2.18731e-05
9.11913e-07
2.18889e-05
9.93793e-07
2.18917e-05
1.06294e-06
2.18782e-05
1.11836e-06
2.18457e-05
1.15827e-06
2.17946e-05
1.1829e-06
2.17272e-05
1.18898e-06
2.16503e-05
1.17704e-06
2.15622e-05
1.15298e-06
2.14618e-05
1.12191e-06
2.13598e-05
1.08015e-06
2.12581e-05
1.03149e-06
2.11427e-05
9.84872e-07
2.10121e-05
9.31834e-07
2.08582e-05
8.82916e-07
2.06787e-05
8.26713e-07
2.04806e-05
7.61786e-07
2.02634e-05
6.90861e-07
2.00244e-05
6.15926e-07
1.97659e-05
5.39926e-07
1.94942e-05
4.58155e-07
1.92228e-05
3.75352e-07
1.8967e-05
2.96778e-07
1.87302e-05
2.30102e-07
1.85154e-05
1.75199e-07
1.83255e-05
1.2759e-07
1.81638e-05
9.14668e-08
1.80303e-05
5.6204e-08
1.79284e-05
3.17203e-08
1.78606e-05
6.57288e-10
1.78198e-05
-3.46439e-09
1.78123e-05
-3.22315e-08
1.78239e-05
-9.47061e-09
1.78502e-05
2.16927e-08
1.79023e-05
1.2443e-07
1.8024e-05
2.77463e-07
1.81566e-05
5.41259e-07
1.84019e-05
7.71522e-07
1.90899e-05
1.14756e-06
2.0271e-05
1.57479e-06
2.3006e-05
2.35894e-06
5.75978e-06
2.70042e-05
3.65904e-08
2.70419e-05
1.17327e-07
2.70968e-05
2.09599e-07
2.71645e-05
3.09998e-07
2.72418e-05
4.15246e-07
2.73257e-05
5.22054e-07
2.74138e-05
6.27338e-07
2.75032e-05
7.28271e-07
2.75917e-05
8.22238e-07
2.76771e-05
9.07008e-07
2.77574e-05
9.80761e-07
2.7831e-05
1.0423e-06
2.78957e-05
1.09005e-06
2.79514e-05
1.12228e-06
2.79995e-05
1.13744e-06
2.80336e-05
1.13739e-06
2.80524e-05
1.12527e-06
2.80574e-05
1.10294e-06
2.80492e-05
1.06696e-06
2.80275e-05
1.0215e-06
2.79937e-05
9.72387e-07
2.7943e-05
9.16463e-07
2.78842e-05
8.49582e-07
2.78302e-05
7.81513e-07
2.77379e-05
7.1658e-07
2.76023e-05
6.46429e-07
2.74178e-05
5.78677e-07
2.71853e-05
5.12222e-07
2.69035e-05
4.42787e-07
2.6577e-05
3.73424e-07
2.62289e-05
3.08882e-07
2.58761e-05
2.5453e-07
2.55306e-05
2.08914e-07
2.52026e-05
1.68334e-07
2.49032e-05
1.35042e-07
2.46386e-05
1.0181e-07
2.44158e-05
7.68862e-08
2.42382e-05
4.57473e-08
2.4113e-05
4.19683e-08
2.40294e-05
2.96756e-08
2.40076e-05
5.65338e-08
2.40339e-05
1.39865e-07
2.41771e-05
2.52046e-07
2.44164e-05
4.82565e-07
2.4906e-05
7.77396e-07
2.57288e-05
1.17976e-06
2.73256e-05
1.59438e-06
2.99292e-05
2.16445e-06
3.50368e-05
2.26957e-06
6.44933e-06
3.38374e-05
2.05794e-08
3.38797e-05
7.41715e-08
3.3945e-05
1.43558e-07
3.40316e-05
2.22505e-07
3.41383e-05
3.07729e-07
3.42631e-05
3.96386e-07
3.44036e-05
4.85941e-07
3.45569e-05
5.73987e-07
3.47207e-05
6.57386e-07
3.48931e-05
7.33439e-07
3.50716e-05
8.00818e-07
3.52537e-05
8.58401e-07
3.54397e-05
9.04253e-07
3.56255e-05
9.36615e-07
3.58074e-05
9.54907e-07
3.59826e-05
9.60385e-07
3.61498e-05
9.53923e-07
3.63072e-05
9.37387e-07
3.64512e-05
9.08257e-07
3.65795e-05
8.69105e-07
3.66971e-05
8.16331e-07
3.68104e-05
7.59276e-07
3.68956e-05
6.93562e-07
3.69395e-05
6.29622e-07
3.69248e-05
5.75426e-07
3.68381e-05
5.20347e-07
3.66925e-05
4.7009e-07
3.64779e-05
4.19218e-07
3.61898e-05
3.75926e-07
3.584e-05
3.31332e-07
3.54501e-05
2.9411e-07
3.50474e-05
2.65475e-07
3.46531e-05
2.41567e-07
3.42822e-05
2.19696e-07
3.39536e-05
2.02432e-07
3.36809e-05
1.83749e-07
3.34755e-05
1.74807e-07
3.33459e-05
1.61222e-07
3.33092e-05
1.75826e-07
3.33855e-05
1.96431e-07
3.35635e-05
2.70116e-07
3.3858e-05
3.8425e-07
3.44515e-05
5.27461e-07
3.54364e-05
7.57006e-07
3.70067e-05
1.08796e-06
3.93846e-05
1.43373e-06
4.28734e-05
1.75837e-06
4.74869e-05
2.07552e-06
5.36145e-05
1.58339e-06
5.15233e-06
4.2417e-05
6.58708e-09
4.24588e-05
3.13565e-08
4.25328e-05
6.85437e-08
4.26409e-05
1.13401e-07
4.27839e-05
1.63658e-07
4.2961e-05
2.18338e-07
4.31696e-05
2.76326e-07
4.34048e-05
3.37882e-07
4.36645e-05
3.97767e-07
4.3948e-05
4.50352e-07
4.42538e-05
4.95891e-07
4.45781e-05
5.35505e-07
4.49162e-05
5.68212e-07
4.5263e-05
5.92711e-07
4.56128e-05
6.08634e-07
4.59625e-05
6.14675e-07
4.63108e-05
6.09475e-07
4.66579e-05
5.92714e-07
4.70104e-05
5.62751e-07
4.73585e-05
5.22765e-07
4.76919e-05
4.75181e-07
4.79987e-05
4.28446e-07
4.82556e-05
3.86818e-07
4.84437e-05
3.53828e-07
4.85511e-05
3.30195e-07
4.85625e-05
3.1111e-07
4.84703e-05
2.96311e-07
4.82907e-05
2.81763e-07
4.80395e-05
2.72161e-07
4.77297e-05
2.61923e-07
4.74006e-05
2.55284e-07
4.70804e-05
2.52701e-07
4.67959e-05
2.52125e-07
4.65698e-05
2.53985e-07
4.64267e-05
2.52955e-07
4.63892e-05
2.57715e-07
4.64946e-05
2.60565e-07
4.67504e-05
2.76568e-07
4.71433e-05
2.95483e-07
4.77501e-05
3.2497e-07
4.8767e-05
3.80194e-07
5.01332e-05
4.61408e-07
5.20007e-05
4.99702e-07
5.44086e-05
6.21284e-07
5.77725e-05
8.93278e-07
6.16765e-05
1.13429e-06
6.61496e-05
9.95767e-07
7.017e-05
1.34896e-06
7.36874e-05
4.76954e-07
2.22639e-06
5.31899e-05
5.322e-05
5.32872e-05
5.33994e-05
5.35619e-05
5.37791e-05
5.40545e-05
5.43919e-05
5.47897e-05
5.52405e-05
5.57378e-05
5.62757e-05
5.6848e-05
5.74472e-05
5.80665e-05
5.86945e-05
5.93204e-05
5.99326e-05
6.05148e-05
6.10549e-05
6.1542e-05
6.19724e-05
6.23459e-05
6.26655e-05
6.29368e-05
6.31635e-05
6.33537e-05
6.35178e-05
6.36761e-05
6.38444e-05
6.4048e-05
6.43215e-05
6.46937e-05
6.51912e-05
6.58349e-05
6.66498e-05
6.76472e-05
6.88482e-05
7.02631e-05
7.19043e-05
7.37786e-05
7.58523e-05
7.80377e-05
8.03344e-05
8.28085e-05
8.5336e-05
8.74451e-05
8.95913e-05
9.05824e-05
)
;

boundaryField
{
    AXIS
    {
        type            empty;
        value           nonuniform 0();
    }
    OUTLET
    {
        type            calculated;
        value           nonuniform List<scalar> 
25
(
1.19015e-07
3.57126e-07
5.92895e-07
8.24128e-07