/*--------------------------------*- C++ -*----------------------------------*\
| =========                 |                                                 |
| \\      /  F ield         | OpenFOAM: The Open Source CFD Toolbox           |
|  \\    /   O peration     | Version:  2.4.x                                 |
|   \\  /    A nd           | Web:      www.OpenFOAM.org                      |
|    \\/     M anipulation  |                                                 |
\*---------------------------------------------------------------------------*/
FoamFile
{
    version     2.0;
    format      ascii;
    class       volScalarField;
    location    "0.1";
    object      rho;
}
// * * * * * * * * * * * * * * * * * * * * * * * * * * * * * * * * * * * * * //

dimensions      [1 -3 0 0 0 0 0];

internalField   nonuniform List<scalar> 
1250
(
1.00245
0.892575
0.800569
0.72903
0.670847
0.623112
0.583112
0.549026
0.518222
0.48595
0.457306
0.43239
0.409554
0.388682
0.369882
0.352443
0.337035
0.323681
0.311354
0.299844
0.28909
0.278987
0.269539
0.261563
0.2534
0.24536
0.237911
0.231067
0.224716
0.21889
0.213486
0.208488
0.203958
0.200005
0.196361
0.19302
0.189954
0.187112
0.184499
0.182091
0.179844
0.177777
0.175856
0.174037
0.172441
0.1708
0.169415
0.168651
0.167994
0.168201
0.99497
0.875829
0.783896
0.713643
0.657454
0.611934
0.574088
0.541896
0.508356
0.477128
0.449584
0.425588
0.403473
0.383437
0.365187
0.348246
0.333366
0.320431
0.308404
0.297189
0.286664
0.276785
0.267553
0.259757
0.25219
0.244253
0.23693
0.23017
0.223922
0.21817
0.212837
0.207907
0.203403
0.199503
0.195912
0.192618
0.189589
0.186787
0.184209
0.181834
0.179614
0.177578
0.175679
0.173886
0.17231
0.170691
0.169329
0.168589
0.167988
0.168332
0.972376
0.832004
0.742258
0.676868
0.626957
0.588159
0.553253
0.51819
0.48651
0.458019
0.432878
0.410841
0.390608
0.372156
0.355026
0.339259
0.325528
0.313414
0.302085
0.291456
0.28145
0.272078
0.263303
0.255921
0.249197
0.24186
0.234783
0.228214
0.222177
0.216581
0.211403
0.206622
0.202209
0.198391
0.194923
0.191734
0.18879
0.18608
0.183574
0.181273
0.179108
0.17714
0.175288
0.173554
0.17202
0.170454
0.169162
0.168478
0.168023
0.168627
0.909747
0.747278
0.669454
0.620755
0.581754
0.544212
0.511258
0.481964
0.455057
0.430499
0.409022
0.390024
0.372305
0.355837
0.34059
0.326512
0.314325
0.303347
0.292957
0.283166
0.273978
0.265333
0.257278
0.250446
0.24424
0.238397
0.231638
0.225398
0.219616
0.214264
0.209329
0.204771
0.200539
0.196783
0.193482
0.190432
0.187627
0.18504
0.182648
0.180444
0.178377
0.176499
0.174731
0.173082
0.171622
0.170139
0.168928
0.168321
0.168083
0.169132
0.725228
0.598476
0.570116
0.537711
0.510085
0.485485
0.461846
0.439316
0.417945
0.397969
0.380885
0.365115
0.350356
0.336569
0.323502
0.311119
0.300699
0.290959
0.281768
0.273061
0.26488
0.257173
0.249925
0.243743
0.23814
0.232861
0.227679
0.221793
0.216369
0.211359
0.206714
0.202404
0.19843
0.194761
0.191636
0.188783
0.186153
0.183725
0.181475
0.179397
0.177464
0.175697
0.174038
0.172499
0.171135
0.169759
0.168685
0.168147
0.168226
0.16988
0.336991
0.428854
0.448435
0.444466
0.433234
0.419823
0.405003
0.389525
0.374861
0.361332
0.349849
0.338481
0.327471
0.3159
0.30482
0.294388
0.285674
0.277372
0.269452
0.261921
0.254839
0.248132
0.241787
0.236256
0.231322
0.226605
0.222142
0.217618
0.212595
0.207931
0.203651
0.199688
0.196004
0.192586
0.189505
0.186866
0.184445
0.182194
0.180122
0.178208
0.176425
0.174797
0.173264
0.171864
0.170611
0.169374
0.168447
0.168049
0.168497
0.17095
0.218188
0.318434
0.360445
0.372441
0.372682
0.365948
0.356912
0.346846
0.336395
0.327052
0.318667
0.310256
0.302042
0.294044
0.286158
0.277697
0.270457
0.263512
0.256856
0.250497
0.244533
0.238805
0.233295
0.228411
0.224153
0.220052
0.216128
0.212386
0.208452
0.204237
0.200331
0.196706
0.193344
0.190222
0.18734
0.184806
0.182599
0.180562
0.178674
0.176939
0.175323
0.173853
0.172476
0.171226
0.170113
0.169031
0.1683
0.168049
0.168933
0.172374
0.188036
0.279622
0.320437
0.331148
0.332835
0.327505
0.320351
0.31261
0.304675
0.298099
0.291912
0.285694
0.27951
0.273514
0.267672
0.262258
0.256309
0.25056
0.245009
0.239688
0.234584
0.229688
0.224981
0.220649
0.216992
0.213505
0.210145
0.206922
0.203828
0.200385
0.19689
0.193647
0.190623
0.187803
0.185204
0.182788
0.180729
0.178915
0.177241
0.175694
0.174262
0.172955
0.171736
0.170664
0.169687
0.168825
0.168272
0.168239
0.169619
0.174295
0.19329
0.287204
0.320202
0.319035
0.311937
0.3049
0.296411
0.288667
0.281551
0.276067
0.270882
0.265846
0.260933
0.256203
0.251585
0.247451
0.24339
0.238603
0.233954
0.229493
0.225238
0.22113
0.217165
0.213387
0.210295
0.207345
0.204486
0.201762
0.199113
0.196574
0.19352
0.190637
0.187966
0.185467
0.183163
0.181016
0.179014
0.177371
0.175907
0.174553
0.173301
0.172186
0.171152
0.17027
0.169476
0.168813
0.168493
0.168679
0.170633
0.176783
0.264861
0.368564
0.374461
0.338626
0.314655
0.297867
0.285533
0.275325
0.266838
0.259594
0.253494
0.248166
0.243363
0.239081
0.235201
0.232727
0.23028
0.22678
0.223151
0.219674
0.216322
0.213081
0.209988
0.207016
0.204378
0.201873
0.199443
0.197136
0.194895
0.19274
0.190415
0.187897
0.185545
0.183361
0.181318
0.179441
0.177689
0.176082
0.174782
0.173627
0.17257
0.17165
0.170814
0.170104
0.169493
0.169069
0.168954
0.169438
0.172018
0.179786
0.7629
0.594321
0.500663
0.407344
0.347088
0.312234
0.289756
0.273752
0.263098
0.254255
0.24606
0.239142
0.23345
0.228492
0.224269
0.22201
0.219904
0.217121
0.214317
0.211616
0.209002
0.206446
0.203996
0.201609
0.199354
0.197227
0.195191
0.193221
0.191309
0.189477
0.187678
0.185478
0.183453
0.181544
0.179789
0.178153
0.176656
0.175263
0.174037
0.173026
0.172163
0.171431
0.170797
0.170283
0.169858
0.16971
0.16985
0.170641
0.174073
0.183416
1.02431
0.825095
0.690259
0.550253
0.43697
0.363587
0.318077
0.290838
0.271839
0.258129
0.248309
0.240212
0.233701
0.228248
0.22383
0.219628
0.215526
0.212
0.209108
0.206452
0.204007
0.201688
0.199495
0.197402
0.195426
0.19359
0.191827
0.190132
0.188501
0.186926
0.1854
0.183579
0.181839
0.180209
0.178705
0.177324
0.176043
0.174914
0.173882
0.172989
0.172244
0.17169
0.171284
0.170993
0.170794
0.170924
0.171344
0.172549
0.176962
0.188064
1.11324
0.976987
0.862717
0.735343
0.601788
0.485699
0.399045
0.341939
0.305327
0.281065
0.263876
0.250552
0.240521
0.232663
0.226314
0.220948
0.216387
0.212425
0.20891
0.205722
0.202852
0.200206
0.197768
0.19547
0.193424
0.191702
0.190066
0.188508
0.187023
0.185607
0.184239
0.182604
0.181086
0.179696
0.178428
0.177261
0.176213
0.175303
0.17449
0.173823
0.173255
0.172847
0.172602
0.172554
0.172639
0.173088
0.173779
0.175628
0.181067
0.194335
1.14454
1.06086
0.974785
0.883913
0.778986
0.667554
0.559175
0.465489
0.39425
0.342416
0.306901
0.281793
0.263605
0.250167
0.239582
0.231044
0.224246
0.218466
0.213622
0.209412
0.205756
0.202533
0.199633
0.196973
0.194705
0.19279
0.191038
0.189407
0.187873
0.186435
0.184856
0.183346
0.181969
0.180716
0.179611
0.178619
0.177753
0.177005
0.176407
0.17593
0.175586
0.175407
0.175393
0.175556
0.175903
0.17669
0.177809
0.180423
0.186983
0.203039
1.15799
1.10428
1.04518
0.978544
0.906372
0.825908
0.73914
0.648317
0.559367
0.479569
0.413716
0.363636
0.326978
0.299073
0.278177
0.262143
0.249595
0.239481
0.231133
0.223943
0.218012
0.212979
0.208642
0.204858
0.201801
0.199164
0.196782
0.194602
0.19246
0.190458
0.188639
0.187029
0.185606
0.184345
0.183274
0.182325
0.181546
0.180913
0.180449
0.180158
0.180003
0.180021
0.180253
0.180656
0.181333
0.182505
0.184047
0.18764
0.195583
0.214989
1.16507
1.12868
1.08758
1.0415
0.989404
0.930875
0.871137
0.803784
0.733339
0.660229
0.588204
0.520462
0.459341
0.407612
0.365973
0.333327
0.307784
0.287503
0.271469
0.25841
0.247771
0.238862
0.231325
0.224995
0.219602
0.214794
0.210487
0.20673
0.203442
0.200545
0.198069
0.195891
0.194025
0.192457
0.191148
0.190051
0.189207
0.18853
0.188052
0.187801
0.187708
0.187859
0.188274
0.188925
0.189898
0.191477
0.1936
0.198568
0.2081
0.231857
1.1694
1.14375
1.11452
1.08173
1.0451
1.00417
0.958492
0.909587
0.860045
0.805778
0.749762
0.694116
0.636391
0.57918
0.524467
0.473831
0.428856
0.390211
0.357905
0.331361
0.309625
0.291968
0.277243
0.264953
0.254622
0.24586
0.238362
0.231864
0.226212
0.221417
0.217323
0.213779
0.210846
0.20835
0.206303
0.204624
0.203289
0.202239
0.201503
0.201042
0.200793
0.200912
0.201314
0.202055
0.203266
0.205235
0.208145
0.21468
0.226089
0.256734
1.17233
1.15385
1.13273
1.10898
1.08252
1.05319
1.02081
0.985189
0.946194
0.905054
0.866663
0.825433
0.781529
0.736111
0.690758
0.644119
0.597888
0.552333
0.509184
0.469106
0.432645
0.400155
0.371824
0.347479
0.326857
0.309209
0.294123
0.281219
0.270217
0.26105
0.253407
0.246974
0.241572
0.237079
0.233358
0.230241
0.227717
0.225669
0.224047
0.222853
0.222028
0.221728
0.221808
0.222376
0.223681
0.226055
0.230041
0.238219
0.253174
0.295231
1.17446
1.16106
1.1457
1.12837
1.109
1.08753
1.06388
1.038
1.01007
0.980757
0.949392
0.916009
0.883214
0.850619
0.816236
0.780318
0.743073
0.706968
0.670347
0.632745
0.595127
0.557637
0.52112
0.486138
0.453752
0.424038
0.397381
0.373932
0.353552
0.336168
0.321497
0.309183
0.298693
0.289746
0.282097
0.275549
0.270035
0.265426
0.261555
0.258569
0.25624
0.254664
0.25378
0.25399
0.255189
0.257873
0.263367
0.27448
0.296355
0.357198
1.17608
1.16644
1.15534
1.14271
1.1285
1.11266
1.09515
1.07634
1.05616
1.0345
1.01139
0.986843
0.960873
0.933514
0.904809
0.876897
0.850364
0.82371
0.795722
0.766444
0.736045
0.705099
0.673054
0.640012
0.606516
0.573079
0.540472
0.509224
0.47979
0.453271
0.429517
0.408731
0.390314
0.374264
0.360137
0.347927
0.337253
0.328307
0.320607
0.314275
0.309149
0.305448
0.303072
0.302547
0.303959
0.307513
0.31578
0.333261
0.3684
0.462728
1.17735
1.17059
1.16271
1.15364
1.14337
1.13191
1.11924
1.10537
1.09033
1.07414
1.05683
1.03844
1.01899
0.998505
0.977004
0.954898
0.933079
0.910419
0.886847
0.865184
0.842442
0.818375
0.792864
0.765851
0.737343
0.708355
0.678461
0.647929
0.61721
0.586819
0.557806
0.530742
0.505803
0.48302
0.462451
0.444135
0.427952
0.414128
0.402223
0.392369
0.384434
0.378549
0.374873
0.374735
0.377531
0.384775
0.401332
0.435132
0.497621
0.64177
1.17837
1.17392
1.1686
1.16235
1.15513
1.14693
1.13774
1.12757
1.11647
1.10445
1.09153
1.07775
1.06314
1.04772
1.03208
1.01631
0.999944
0.982915
0.965149
0.946528
0.926941
0.906217
0.884119
0.864033
0.842065
0.817873
0.791772
0.764105
0.735309
0.705645
0.67601
0.647522
0.620681
0.595794
0.573069
0.552679
0.534676
0.519159
0.506057
0.495687
0.487872
0.4831
0.482299
0.485004
0.49412
0.513798
0.551372
0.613236
0.714778
0.874302
1.17922
1.17657
1.17322
1.16913
1.16425
1.15859
1.15215
1.14494
1.13698
1.12829
1.11889
1.10878
1.09833
1.08761
1.07643
1.0648
1.0527
1.04008
1.02689
1.01302
0.998358
0.983653
0.968029
0.950871
0.931804
0.910493
0.88708
0.862988
0.837258
0.810402
0.783228
0.756787
0.731833
0.708738
0.687924
0.66978
0.654512
0.642302
0.633277
0.628017
0.626921
0.62905
0.636637
0.652609
0.678962
0.719158
0.779521
0.858912
0.964434
1.06857
1.17989
1.17869
1.17683
1.17442
1.17144
1.1679
1.16377
1.15905
1.15385
1.14819
1.14203
1.13541
1.12834
1.12087
1.11304
1.10489
1.09641
1.08757
1.07858
1.06953
1.05998
1.04973
1.03851
1.02594
1.01161
0.995148
0.97639
0.955585
0.933456
0.910518
0.887516
0.865819
0.845726
0.82782
0.812516
0.800409
0.79192
0.78747
0.786843
0.789463
0.798763
0.814769
0.837402
0.867132
0.907505
0.959186
1.01774
1.07334
1.1203
1.15344
1.18023
1.17995
1.1794
1.17856
1.17741
1.17595
1.17415
1.17202
1.16956
1.16675
1.16361
1.16013
1.15636
1.15233
1.14817
1.14383
1.13935
1.13473
1.12996
1.12482
1.11924
1.11309
1.10621
1.0984
1.08953
1.0795
1.06839
1.05642
1.04395
1.03142
1.0193
1.00824
0.998929
0.99191
0.987654
0.98655
0.988871
0.994727
1.00429
1.01721
1.03347
1.05218
1.07282
1.09408
1.11476
1.13362
1.14982
1.16194
1.1701
1.17622
)
;

boundaryField
{
    AXIS
    {
        type            empty;
    }
    OUTLET
    {
        type            calculated;
        value           nonuniform List<scalar> 
25
(
0.1682
0.168332
0.168627
0.169132
0.16988
0.17095
0.172374
0.174295
0.176782
0.179786
0.183415
0.188063
0.194334
0.203038
0.214987
0.231855
0.256732
0.295229
0.357194
0.462723
0.641763
0.874295
1.06856
1.15343
1.17621
)
;
    }
    COFLOW
    {
        type            calculated;
        value           nonuniform List<scalar> 
15
(
1.18027
1.18027
1.18026
1.18025
1.18025
1.18025
1.18025
1.18025
1.18025
1.18025
1.18024
1.18024
1.18024
1.18024
1.18024
)
;
    }
    PILOT
    {
        type            calculated;
        value           nonuniform List<scalar> 5(0.15677 0.156773 0.156787 0.156792 0.156795);
    }
    FUEL
    {
        type            calculated;
        value           nonuniform List<scalar> 5(1.05078 1.05075 1.05088 1.05126 1.05149);
    }
    WALL
    {
        type            calculated;
        value           nonuniform List<scalar> 
50
(
1.18023
1.17995
1.1794
1.17856
1.17741
1.17595
1.17415
1.17202
1.16956
1.16675
1.16361
1.16013
1.15636
1.15233
1.14817
1.14383
1.13935
1.13473
1.12996
1.12482
1.11924
1.11309
1.10621
1.0984
1.08953
1.0795
1.06839
1.05642
1.04395
1.03142
1.0193
1.00824
0.998929
0.99191
0.987654
0.98655
0.988871
0.994727
1.00429
1.01721
1.03347
1.05218
1.07282
1.09408
1.11476
1.13362
1.14982
1.16194
1.1701
1.17622
)
;
    }
    front
    {
        type            wedge;
    }
    back
    {
        type            wedge;
    }
}


// ************************************************************************* //
