/*--------------------------------*- C++ -*----------------------------------*\
| =========                 |                                                 |
| \\      /  F ield         | OpenFOAM: The Open Source CFD Toolbox           |
|  \\    /   O peration     | Version:  2.4.x                                 |
|   \\  /    A nd           | Web:      www.OpenFOAM.org                      |
|    \\/     M anipulation  |                                                 |
\*---------------------------------------------------------------------------*/
FoamFile
{
    version     2.0;
    format      ascii;
    class       volScalarField;
    location    "0.1";
    object      T;
}
// * * * * * * * * * * * * * * * * * * * * * * * * * * * * * * * * * * * * * //

dimensions      [0 0 0 1 0 0 0];

internalField   nonuniform List<scalar> 
1250
(
308.111
345.553
385.194
423.073
459.978
495.547
530.001
563.451
597.492
637.37
677.475
716.73
756.881
797.703
838.423
880.055
920.412
958.487
996.542
1034.89
1073.51
1112.51
1151.68
1187.07
1225.16
1264.93
1304.21
1342.62
1380.45
1417.21
1453.25
1488.41
1521.99
1552.83
1582.58
1611.09
1638.41
1664.8
1690.09
1714.32
1737.89
1760.38
1782.14
1803.69
1823.19
1844.2
1863.08
1875.14
1890.21
1910.71
310.401
352.139
393.383
432.245
469.473
504.822
538.652
571.284
609.292
649.373
689.351
728.44
768.556
808.902
849.504
890.967
930.86
968.543
1006.41
1044.49
1082.95
1121.74
1160.62
1195.72
1231.66
1271.28
1310.24
1348.49
1385.99
1422.55
1458.35
1493.25
1526.82
1557.42
1586.9
1615.16
1642.26
1668.39
1693.45
1717.45
1740.82
1763.05
1784.65
1805.95
1825.27
1846.07
1864.71
1876.51
1890.97
1909.86
317.598
370.607
415.478
455.946
492.778
525.971
559.801
598.009
637.212
677.061
716.581
755.242
794.562
834.146
874.545
915.317
954.04
991.011
1028.26
1065.86
1103.86
1142.02
1180.25
1214.56
1247.65
1285.25
1323.63
1361.46
1398.31
1434.43
1469.71
1504.03
1537.34
1567.65
1596.47
1624.13
1650.75
1676.27
1700.85
1724.31
1747.28
1768.96
1790.16
1810.93
1829.85
1850.16
1868.03
1879.24
1892.1
1907.93
339.394
412.484
460.963
498.088
532.428
569.698
606.868
644.099
682.425
721.524
759.591
796.8
834.891
873.667
912.889
952.36
989.348
1025.22
1061.64
1098.42
1135.35
1172.47
1209.35
1242.59
1274.47
1306.08
1343.76
1380.65
1416.81
1452.17
1486.53
1519.91
1552.45
1582.77
1610.67
1637.54
1663.3
1688.02
1711.79
1734.55
1756.75
1777.69
1798.19
1818.16
1836.38
1855.88
1872.84
1883.24
1893.72
1904.36
424.999
515.344
543.356
577.328
609.468
640.944
674.13
708.92
745.247
782.655
817.853
853.267
889.309
925.843
963.253
1001.51
1036.18
1070.86
1105.8
1141.08
1176.38
1211.73
1247.01
1278.88
1309.26
1339.29
1370.08
1406.05
1441.06
1475.14
1508.38
1540.74
1572.03
1602.27
1629.25
1654.92
1679.55
1703.18
1725.93
1747.74
1768.86
1788.86
1808.41
1827.33
1844.61
1863.05
1878.49
1888.13
1895.1
1898.73
920.345
726.436
696.387
703.376
721.975
745.115
772.288
802.795
834.093
865.324
893.838
923.886
954.928
989.636
1025.3
1061.34
1093.55
1126.15
1159.15
1192.41
1225.53
1258.69
1291.82
1322.25
1350.71
1379.15
1407.26
1436.78
1470.41
1503.24
1534.87
1565.53
1595.34
1624.22
1651.4
1675.72
1698.92
1721.3
1742.7
1763.2
1783.05
1801.84
1820.25
1837.8
1853.97
1870.99
1884.76
1892.84
1895.71
1890.14
1464.86
995.684
878.06
848.585
847.059
861.664
882.543
907.314
934.756
960.849
985.651
1011.98
1039.16
1067.15
1096.28
1129.13
1158.97
1189.19
1219.74
1250.48
1280.87
1311.54
1342.53
1371.33
1397.59
1423.91
1450.13
1476.13
1504.17
1534.99
1564.86
1593.83
1621.86
1648.99
1675.06
1698.94
1720.61
1741.36
1761.3
1780.32
1798.7
1816.04
1832.98
1848.99
1863.75
1879.12
1890.62
1897.06
1895.03
1878.31
1739.28
1157.99
1005.09
968.032
959.685
972.498
991.811
1014.36
1039.08
1060.67
1082.04
1104.65
1128.31
1152.39
1177.01
1200.99
1228.19
1255.74
1283.67
1311.74
1339.94
1368.27
1396.76
1424.17
1448.28
1472.14
1495.97
1519.66
1543.21
1569.77
1597.49
1624.28
1650.28
1675.49
1699.63
1722.92
1743.6
1762.56
1780.68
1798.04
1814.72
1830.51
1845.87
1860.02
1873.35
1886.3
1895.69
1899.67
1892.07
1861.77
1712.01
1152.79
1026.09
1021.6
1038.18
1057.01
1082.99
1108.51
1133.59
1153.82
1173.97
1194.57
1215.68
1236.96
1258.71
1279.03
1299.7
1324.79
1350.3
1375.85
1401.28
1426.88
1452.64
1478.19
1499.91
1521.34
1542.8
1563.93
1585.12
1606.1
1631.25
1655.85
1679.52
1702.48
1724.44
1745.64
1766.11
1783.66
1799.89
1815.46
1830.4
1844.27
1857.71
1869.79
1881.11
1891.82
1898.42
1899.91
1885.93
1840.05
1272.25
917.624
896.056
979.859
1045.13
1096.35
1137.43
1174.36
1207.38
1237.37
1263.88
1288.22
1311.14
1332.43
1352.68
1366.17
1380.02
1400.19
1421.95
1443.6
1465.3
1487.11
1508.7
1530.19
1549.79
1568.96
1588.13
1606.87
1625.62
1644.18
1664.42
1686.53
1707.93
1728.5
1748.4
1767.34
1785.63
1802.99
1817.71
1831.32
1844.28
1856.08
1867.39
1877.51
1886.78
1894.72
1898.83
1896.97
1876.15
1813.94
452.715
577.692
681.048
828.929
963.264
1061.33
1135.68
1195.2
1238.04
1276.39
1314.95
1349.24
1378.78
1405.75
1429.72
1442.4
1454.68
1471.62
1489.4
1507.17
1524.99
1543.07
1560.95
1578.95
1596.46
1613.41
1630.12
1646.73
1663.29
1679.59
1696
1715.78
1734.62
1752.95
1770.38
1787.18
1803.08
1818.38
1832.37
1844.48
1855.36
1865.1
1874.13
1881.99
1889.12
1893.82
1894.88
1889.6
1859.8
1782.89
338.295
418.651
498.455
621.709
776.938
926.158
1050.67
1140.77
1213.67
1272.15
1317.34
1357.26
1391.18
1421.04
1446.23
1471.4
1496.93
1519.29
1538.07
1555.94
1572.95
1589.69
1606.03
1622.14
1637.86
1652.86
1667.68
1682.32
1696.77
1711.06
1725.26
1741.99
1758.41
1774.26
1789.37
1803.7
1817.45
1830.02
1841.94
1852.71
1862.21
1869.9
1876.29
1881.53
1886.03
1887.42
1885.2
1875.48
1835.9
1744.12
311.515
354.385
400.523
468.551
570.186
702.774
849.845
985.194
1096.68
1184.76
1255.96
1317.33
1367.46
1409.3
1444.92
1476.47
1504.37
1529.53
1552.67
1574.39
1594.58
1613.84
1632.13
1649.93
1666.26
1680.39
1694.18
1707.63
1720.79
1733.62
1746.3
1761.29
1775.62
1789.12
1801.85
1813.95
1825.19
1835.33
1844.77
1852.95
1860.33
1866.23
1870.63
1873.01
1874.21
1871.87
1866.59
1850.36
1801.57
1693.76
303.075
326.693
355.139
391.093
442.901
515.449
613.165
733.326
861.576
986.635
1095.19
1187.2
1263.81
1326.9
1381.06
1427.97
1467.49
1502.84
1533.76
1561.72
1586.88
1609.81
1631.12
1651.28
1668.97
1684.31
1698.69
1712.39
1725.6
1738.25
1752.16
1765.75
1778.47
1790.37
1801.2
1811.23
1820.3
1828.46
1835.34
1841.2
1845.9
1849.07
1850.7
1850.61
1848.83
1842.75
1833.09
1809.89
1752.62
1627.74
299.59
313.995
331.528
353.811
381.597
418.232
466.551
530.756
613.45
713.102
823.409
933.016
1033.57
1125.57
1205.74
1275.28
1335.41
1388.03
1434.6
1477.26
1514.33
1547.26
1576.83
1603.59
1625.93
1645.76
1664.12
1681.38
1698.57
1714.98
1730.24
1744.06
1756.56
1767.91
1777.85
1786.87
1794.54
1801.04
1806.09
1809.64
1812.01
1812.83
1811.69
1808.99
1803.76
1793.94
1780.62
1749.72
1684.25
1544.28
297.789
307.285
318.762
332.697
350.002
371.733
396.892
429.693
470.362
521.608
584.322
658.792
744.362
836.242
928.408
1016.12
1097.1
1171.12
1236.97
1296.25
1348.81
1396.14
1438.8
1476.65
1510.45
1541.9
1571.21
1597.68
1621.6
1643.3
1662.3
1679.44
1694.46
1707.34
1718.35
1727.78
1735.23
1741.37
1745.89
1748.55
1749.89
1749.15
1746.12
1741.09
1733.3
1720.38
1703
1663.33
1592.06
1439.21
296.7
303.282
311.148
320.474
331.581
344.941
361.191
380.38
402.024
428.754
460.343
496.697
541.022
593.517
654.218
722.6
796.521
873.237
949.645
1023.14
1092.31
1155.68
1214.41
1268.15
1317.1
1361.63
1402.18
1439.3
1473.21
1503.21
1529.8
1553.61
1573.86
1591.55
1606.36
1618.77
1628.82
1636.86
1642.62
1646.33
1648.44
1647.76
1644.88
1639.42
1630.38
1615.74
1594.37
1548.33
1474.35
1307.16
295.965
300.657
306.204
312.691
320.253
329.076
339.404
351.543
365.873
382.316
399.051
418.738
441.96
468.859
499.203
534.797
575.471
622.09
673.757
730.061
790.121
852.607
915.743
977.947
1037.63
1094.78
1148.86
1199.5
1246.33
1288.2
1325.29
1358.19
1387.09
1412.07
1433.43
1451.84
1467.09
1479.71
1489.87
1497.45
1502.75
1504.68
1504.16
1500.48
1492.08
1477.06
1452.45
1404.64
1325.3
1143.92
295.433
298.811
302.775
307.379
312.693
318.804
325.817
333.861
342.999
353.141
364.683
377.827
391.699
406.536
423.457
442.709
464.613
488.009
514.268
544.343
578.174
616.351
658.72
705.155
754.391
806.022
858.743
911.162
962.198
1010.46
1055.11
1095.73
1132.88
1166.59
1197.03
1224.35
1248.34
1269.11
1287.1
1301.3
1312.58
1320.29
1324.61
1323.44
1317.31
1303.97
1277.59
1227.64
1140.21
951.915
295.031
297.446
300.277
303.563
307.348
311.68
316.615
322.094
328.189
334.991
342.57
351.005
360.394
370.846
382.485
394.528
406.698
419.695
434.269
450.638
468.993
489.285
512.239
538.276
567.522
600.075
635.627
673.898
714.406
755.3
796.119
835.645
874.091
910.601
945.346
977.577
1007.6
1034.22
1058.27
1078.89
1096.17
1108.95
1117.27
1119.03
1113.88
1101.28
1073.21
1018.53
924.027
739.92
294.717
296.402
298.391
300.716
303.391
306.434
309.87
313.721
318.009
322.756
327.991
333.744
340.054
346.963
354.524
362.648
371.035
380.165
390.151
399.805
410.467
422.389
435.807
450.976
468.174
487.043
508.171
531.732
557.754
586.148
616.096
646.932
678.228
709.586
740.501
770.394
798.882
824.948
848.795
869.597
887.106
900.552
909.161
909.437
902.81
886.181
850.459
785.864
689.151
536.818
294.462
295.57
296.902
298.484
300.332
302.461
304.882
307.604
310.637
313.987
317.668
321.693
326.074
330.83
335.796
340.95
346.475
352.414
358.831
365.813
373.456
381.897
391.329
400.305
410.606
422.583
436.316
451.884
469.316
488.751
509.855
531.94
554.576
577.367
599.888
621.645
642.211
661.073
677.889
691.821
702.712
709.544
710.734
706.878
694.074
667.981
623.253
561.391
482.752
395.691
294.254
294.91
295.744
296.771
298.002
299.444
301.103
302.982
305.085
307.415
309.976
312.775
315.725
318.809
322.088
325.572
329.278
333.232
337.471
342.044
347.013
352.139
357.751
364.123
371.475
380.052
389.944
400.687
412.837
426.334
440.923
456.114
471.447
486.596
501.118
514.506
526.343
536.214
543.759
548.267
549.24
547.44
541.047
528.038
507.85
479.852
443.173
402.691
359.095
324.44
294.086
294.385
294.845
295.446
296.189
297.079
298.125
299.329
300.665
302.136
303.75
305.506
307.401
309.433
311.59
313.867
316.271
318.816
321.447
324.136
327.024
330.178
333.701
337.74
342.465
348.057
354.656
362.277
370.753
379.97
389.691
399.341
408.717
417.456
425.227
431.586
436.166
438.614
438.976
437.556
432.545
424.173
412.868
398.894
381.36
361.035
340.474
323.007
309.589
300.777
294.004
294.073
294.209
294.417
294.701
295.064
295.513
296.044
296.661
297.369
298.165
299.05
300.016
301.053
302.135
303.268
304.449
305.674
306.951
308.335
309.854
311.544
313.459
315.659
318.198
321.116
324.414
328.044
331.913
335.896
339.843
343.526
346.691
349.118
350.61
351.004
350.198
348.169
344.901
340.579
335.291
329.398
323.132
316.921
311.102
305.978
301.705
298.591
296.524
295.001
)
;

boundaryField
{
    AXIS
    {
        type            empty;
    }
    OUTLET
    {
        type            calculated;
        value           nonuniform List<scalar> 
25
(
1910.71
1909.86
1907.93
1904.36
1898.73
1890.14
1878.31
1861.77
1840.05
1813.94
1782.89
1744.12
1693.76
1627.74
1544.28
1439.21
1307.16
1143.92
951.915
739.92
536.818
395.691
324.44
300.777
295.001
)
;
    }
    COFLOW
    {
        type            calculated;
        value           uniform 294;
    }
    PILOT
    {
        type            calculated;
        value           uniform 2102.68;
    }
    FUEL
    {
        type            calculated;
        value           uniform 294;
    }
    WALL
    {
        type            calculated;
        value           nonuniform List<scalar> 
50
(
294.004
294.073
294.209
294.417
294.701
295.064
295.513
296.044
296.661
297.369
298.165
299.05
300.016
301.053
302.135
303.268
304.449
305.674
306.951
308.335
309.854
311.544
313.459
315.659
318.198
321.116
324.414
328.044
331.913
335.896
339.843
343.526
346.691
349.118
350.61
351.004
350.198
348.169
344.901
340.579
335.291
329.398
323.132
316.921
311.102
305.978
301.705
298.591
296.524
295.001
)
;
    }
    front
    {
        type            wedge;
    }
    back
    {
        type            wedge;
    }
}


// ************************************************************************* //
