/*--------------------------------*- C++ -*----------------------------------*\
| =========                 |                                                 |
| \\      /  F ield         | OpenFOAM: The Open Source CFD Toolbox           |
|  \\    /   O peration     | Version:  2.4.x                                 |
|   \\  /    A nd           | Web:      www.OpenFOAM.org                      |
|    \\/     M anipulation  |                                                 |
\*---------------------------------------------------------------------------*/
FoamFile
{
    version     2.0;
    format      ascii;
    class       volScalarField;
    location    "0.1";
    object      thermo:mu;
}
// * * * * * * * * * * * * * * * * * * * * * * * * * * * * * * * * * * * * * //

dimensions      [1 -1 -1 0 0 0 0];

internalField   nonuniform List<scalar> 
1250
(
1.88881e-05
2.08066e-05
2.27414e-05
2.4507e-05
2.61568e-05
2.76871e-05
2.91184e-05
3.04637e-05
3.17915e-05
3.32982e-05
3.47645e-05
3.6156e-05
3.75379e-05
3.89032e-05
4.02282e-05
4.15472e-05
4.2794e-05
4.39432e-05
4.50672e-05
4.61764e-05
4.72707e-05
4.83544e-05
4.94217e-05
5.0369e-05
5.13717e-05
5.24001e-05
5.33987e-05
5.43594e-05
5.52906e-05
5.61825e-05
5.70443e-05
5.7874e-05
5.86563e-05
5.93665e-05
6.00443e-05
6.06874e-05
6.12976e-05
6.18817e-05
6.24368e-05
6.29644e-05
6.34739e-05
6.39563e-05
6.44199e-05
6.48759e-05
6.5286e-05
6.57252e-05
6.61176e-05
6.63669e-05
6.66776e-05
6.70977e-05
1.90082e-05
2.11346e-05
2.31297e-05
2.49233e-05
2.65708e-05
2.80772e-05
2.94703e-05
3.07728e-05
3.22427e-05
3.3742e-05
3.51899e-05
3.65632e-05
3.79324e-05
3.92712e-05
4.05827e-05
4.18874e-05
4.31119e-05
4.42425e-05
4.53548e-05
4.64505e-05
4.75351e-05
4.86077e-05
4.96625e-05
5.05983e-05
5.15411e-05
5.25627e-05
5.35506e-05
5.45048e-05
5.5426e-05
5.63108e-05
5.71653e-05
5.79873e-05
5.87681e-05
5.94716e-05
6.01422e-05
6.07785e-05
6.13831e-05
6.1961e-05
6.25104e-05
6.30324e-05
6.35368e-05
6.40134e-05
6.44731e-05
6.49236e-05
6.53296e-05
6.57643e-05
6.61512e-05
6.63953e-05
6.66932e-05
6.70803e-05
1.93831e-05
2.20403e-05
2.41591e-05
2.59797e-05
2.75699e-05
2.89534e-05
3.03189e-05
3.18114e-05
3.32923e-05
3.47496e-05
3.61508e-05
3.74823e-05
3.87995e-05
4.00907e-05
4.13746e-05
4.26383e-05
4.38103e-05
4.49053e-05
4.59863e-05
4.70557e-05
4.81158e-05
4.91604e-05
5.01878e-05
5.10944e-05
5.19554e-05
5.29189e-05
5.38863e-05
5.48249e-05
5.57256e-05
5.65957e-05
5.74341e-05
5.82391e-05
5.90108e-05
5.97051e-05
6.03584e-05
6.09792e-05
6.15713e-05
6.21342e-05
6.26717e-05
6.31808e-05
6.36756e-05
6.41394e-05
6.459e-05
6.50285e-05
6.54256e-05
6.58493e-05
6.62201e-05
6.64517e-05
6.67165e-05
6.70408e-05
2.04973e-05
2.40211e-05
2.62e-05
2.77943e-05
2.92174e-05
3.07104e-05
3.21504e-05
3.35475e-05
3.49423e-05
3.63231e-05
3.76298e-05
3.88735e-05
4.01146e-05
4.13471e-05
4.25639e-05
4.376e-05
4.48565e-05
4.58986e-05
4.69367e-05
4.79652e-05
4.89793e-05
4.99801e-05
5.09576e-05
5.18246e-05
5.26443e-05
5.34458e-05
5.43877e-05
5.52957e-05
5.61729e-05
5.70187e-05
5.78299e-05
5.86082e-05
5.93579e-05
6.00485e-05
6.06777e-05
6.12782e-05
6.18486e-05
6.23917e-05
6.29096e-05
6.34019e-05
6.38787e-05
6.43253e-05
6.47599e-05
6.51804e-05
6.55622e-05
6.59681e-05
6.63196e-05
6.6534e-05
6.67496e-05
6.69677e-05
2.45948e-05
2.85154e-05
2.96605e-05
3.10098e-05
3.22494e-05
3.34308e-05
3.4644e-05
3.58824e-05
3.71416e-05
3.84044e-05
3.95633e-05
4.07025e-05
4.18358e-05
4.29595e-05
4.40853e-05
4.5212e-05
4.62133e-05
4.71964e-05
4.81693e-05
4.91349e-05
5.00848e-05
5.10202e-05
5.19391e-05
5.27567e-05
5.35259e-05
5.42766e-05
5.50368e-05
5.59132e-05
5.67543e-05
5.75622e-05
5.83403e-05
5.90891e-05
5.98048e-05
6.0489e-05
6.10935e-05
6.16637e-05
6.22061e-05
6.27224e-05
6.3216e-05
6.36855e-05
6.41372e-05
6.45624e-05
6.49754e-05
6.53727e-05
6.57338e-05
6.61168e-05
6.64362e-05
6.66347e-05
6.6778e-05
6.68524e-05
4.27919e-05
3.64938e-05
3.54401e-05
3.56873e-05
3.63388e-05
3.71371e-05
3.80577e-05
3.90709e-05
4.0089e-05
4.10845e-05
4.19765e-05
4.28999e-05
4.38368e-05
4.4865e-05
4.5901e-05
4.69283e-05
4.78303e-05
4.87283e-05
4.9623e-05
5.05106e-05
5.13813e-05
5.22401e-05
5.30856e-05
5.38518e-05
5.45597e-05
5.52591e-05
5.59424e-05
5.6652e-05
5.74507e-05
5.82207e-05
5.89538e-05
5.96568e-05
6.03327e-05
6.09813e-05
6.15858e-05
6.2122e-05
6.26296e-05
6.31156e-05
6.35772e-05
6.40164e-05
6.44392e-05
6.48368e-05
6.52244e-05
6.55916e-05
6.59286e-05
6.62812e-05
6.65653e-05
6.67316e-05
6.67905e-05
6.66761e-05
5.73196e-05
4.50421e-05
4.14848e-05
4.05533e-05
4.05047e-05
4.09688e-05
4.1625e-05
4.23927e-05
4.32299e-05
4.40137e-05
4.47479e-05
4.55163e-05
4.62984e-05
4.7092e-05
4.79061e-05
4.88098e-05
4.96183e-05
5.04254e-05
5.12299e-05
5.20287e-05
5.28076e-05
5.35834e-05
5.43571e-05
5.50676e-05
5.5708e-05
5.63437e-05
5.69702e-05
5.75854e-05
5.82425e-05
5.89565e-05
5.96415e-05
6.02988e-05
6.09285e-05
6.15323e-05
6.21075e-05
6.26301e-05
6.31009e-05
6.35485e-05
6.3976e-05
6.43812e-05
6.47707e-05
6.51359e-05
6.5491e-05
6.5825e-05
6.61314e-05
6.64491e-05
6.66859e-05
6.68181e-05
6.67765e-05
6.64324e-05
6.35037e-05
4.95919e-05
4.53163e-05
4.42274e-05
4.3979e-05
4.43598e-05
4.49287e-05
4.55853e-05
4.6296e-05
4.69093e-05
4.75095e-05
4.81377e-05
4.87873e-05
4.94409e-05
5.01015e-05
5.07377e-05
5.14507e-05
5.21643e-05
5.28788e-05
5.35883e-05
5.42927e-05
5.49923e-05
5.5688e-05
5.63499e-05
5.69263e-05
5.74915e-05
5.80509e-05
5.86022e-05
5.91457e-05
5.97533e-05
6.03813e-05
6.09827e-05
6.1561e-05
6.21169e-05
6.26451e-05
6.31508e-05
6.35966e-05
6.40028e-05
6.43889e-05
6.47566e-05
6.51082e-05
6.54393e-05
6.576e-05
6.60542e-05
6.63299e-05
6.65972e-05
6.679e-05
6.68717e-05
6.67158e-05
6.60903e-05
6.29144e-05
4.94516e-05
4.59239e-05
4.57945e-05
4.62705e-05
4.68059e-05
4.7536e-05
4.82441e-05
4.89313e-05
4.94795e-05
5.00202e-05
5.0568e-05
5.11238e-05
5.16789e-05
5.22405e-05
5.27607e-05
5.32849e-05
5.39155e-05
5.45497e-05
5.51783e-05
5.57975e-05
5.6415e-05
5.70298e-05
5.7634e-05
5.81431e-05
5.86413e-05
5.91364e-05
5.96202e-05
6.01019e-05
6.05752e-05
6.11382e-05
6.16843e-05
6.22054e-05
6.27071e-05
6.31836e-05
6.36404e-05
6.40786e-05
6.44521e-05
6.47958e-05
6.51238e-05
6.54371e-05
6.57266e-05
6.60062e-05
6.62565e-05
6.64901e-05
6.67106e-05
6.6846e-05
6.68767e-05
6.65896e-05
6.56386e-05
5.25876e-05
4.27088e-05
4.20452e-05
4.45774e-05
4.64685e-05
4.79079e-05
4.90358e-05
5.00306e-05
5.09058e-05
5.16894e-05
5.23734e-05
5.29943e-05
5.35732e-05
5.41061e-05
5.46084e-05
5.49408e-05
5.52802e-05
5.57712e-05
5.62964e-05
5.68147e-05
5.73299e-05
5.78436e-05
5.83478e-05
5.88459e-05
5.92969e-05
5.97349e-05
6.01699e-05
6.05926e-05
6.10126e-05
6.14258e-05
6.18733e-05
6.23591e-05
6.28257e-05
6.32713e-05
6.36998e-05
6.41049e-05
6.4494e-05
6.48612e-05
6.5171e-05
6.54564e-05
6.57269e-05
6.59724e-05
6.62067e-05
6.6416e-05
6.6607e-05
6.67702e-05
6.68545e-05
6.68163e-05
6.63879e-05
6.50919e-05
2.58373e-05
3.10241e-05
3.48929e-05
3.99224e-05
4.40856e-05
4.6928e-05
4.89881e-05
5.05846e-05
5.17066e-05
5.26932e-05
5.36689e-05
5.45234e-05
5.525e-05
5.59058e-05
5.64831e-05
5.67861e-05
5.70783e-05
5.74791e-05
5.78972e-05
5.83123e-05
5.87258e-05
5.91425e-05
5.95521e-05
5.9962e-05
6.0358e-05
6.07394e-05
6.11129e-05
6.14822e-05
6.18485e-05
6.22071e-05
6.25659e-05
6.29962e-05
6.34033e-05
6.37973e-05
6.41698e-05
6.45267e-05
6.4863e-05
6.5185e-05
6.54783e-05
6.57311e-05
6.59574e-05
6.61595e-05
6.63461e-05
6.65084e-05
6.66551e-05
6.67516e-05
6.67734e-05
6.6665e-05
6.60496e-05
6.44358e-05
2.04419e-05
2.43048e-05
2.78098e-05
3.27125e-05
3.82136e-05
4.2969e-05
4.66262e-05
4.91265e-05
5.10711e-05
5.25851e-05
5.37289e-05
5.47214e-05
5.55523e-05
5.62746e-05
5.68773e-05
5.74739e-05
5.80733e-05
5.85938e-05
5.90275e-05
5.94378e-05
5.98258e-05
6.02052e-05
6.05736e-05
6.09347e-05
6.12853e-05
6.16181e-05
6.19453e-05
6.22668e-05
6.25828e-05
6.28937e-05
6.32013e-05
6.35621e-05
6.39141e-05
6.42524e-05
6.45732e-05
6.48762e-05
6.51656e-05
6.54291e-05
6.56781e-05
6.59023e-05
6.60994e-05
6.62588e-05
6.63908e-05
6.64989e-05
6.65915e-05
6.66201e-05
6.65745e-05
6.63741e-05
6.5552e-05
6.36078e-05
1.90665e-05
2.12458e-05
2.34652e-05
2.65308e-05
3.07296e-05
3.56661e-05
4.05935e-05
4.47345e-05
4.79171e-05
5.03078e-05
5.21699e-05
5.37286e-05
5.49724e-05
5.59917e-05
5.68461e-05
5.75934e-05
5.82471e-05
5.88307e-05
5.93628e-05
5.98584e-05
6.03158e-05
6.07489e-05
6.11578e-05
6.15531e-05
6.1914e-05
6.22246e-05
6.25261e-05
6.28192e-05
6.31047e-05
6.33818e-05
6.36546e-05
6.39756e-05
6.42813e-05
6.4568e-05
6.48371e-05
6.50919e-05
6.5328e-05
6.55402e-05
6.57372e-05
6.59074e-05
6.60605e-05
6.61827e-05
6.62738e-05
6.63231e-05
6.63479e-05
6.62995e-05
6.61902e-05
6.58534e-05
6.48311e-05
6.25172e-05
1.86229e-05
1.98519e-05
2.12831e-05
2.30215e-05
2.54016e-05
2.85197e-05
3.23897e-05
3.67321e-05
4.0966e-05
4.47769e-05
4.78757e-05
5.03726e-05
5.23716e-05
5.39681e-05
5.53056e-05
5.6441e-05
5.73817e-05
5.82112e-05
5.89284e-05
5.95699e-05
6.01416e-05
6.06586e-05
6.11352e-05
6.15831e-05
6.19736e-05
6.23105e-05
6.26246e-05
6.29227e-05
6.32087e-05
6.34816e-05
6.37804e-05
6.40709e-05
6.4342e-05
6.45943e-05
6.48234e-05
6.50347e-05
6.52253e-05
6.53964e-05
6.55403e-05
6.56627e-05
6.57606e-05
6.58265e-05
6.58606e-05
6.58588e-05
6.58217e-05
6.56949e-05
6.54932e-05
6.50065e-05
6.37902e-05
6.10598e-05
1.84382e-05
1.91959e-05
2.00989e-05
2.12174e-05
2.25696e-05
2.42856e-05
2.64438e-05
2.91492e-05
3.24006e-05
3.60291e-05
3.97438e-05
4.31772e-05
4.61385e-05
4.87124e-05
5.08627e-05
5.26651e-05
5.41803e-05
5.54758e-05
5.65997e-05
5.7612e-05
5.84786e-05
5.92389e-05
5.99137e-05
6.05187e-05
6.10194e-05
6.14607e-05
6.18668e-05
6.22462e-05
6.2622e-05
6.29788e-05
6.33089e-05
6.36064e-05
6.38746e-05
6.41171e-05
6.43288e-05
6.45202e-05
6.46827e-05
6.482e-05
6.49266e-05
6.50013e-05
6.50512e-05
6.50685e-05
6.50444e-05
6.49876e-05
6.48773e-05
6.467e-05
6.43875e-05
6.3728e-05
6.23091e-05
5.91704e-05
1.83425e-05
1.88447e-05
1.94434e-05
2.01583e-05
2.10285e-05
2.20948e-05
2.32949e-05
2.48079e-05
2.66094e-05
2.87741e-05
3.12826e-05
3.40873e-05
3.71113e-05
4.01581e-05
4.30374e-05
4.56362e-05
4.79288e-05
4.9944e-05
5.1679e-05
5.31979e-05
5.45128e-05
5.5673e-05
5.67003e-05
5.75978e-05
5.83886e-05
5.91157e-05
5.97862e-05
6.03857e-05
6.09228e-05
6.14062e-05
6.18266e-05
6.22036e-05
6.25325e-05
6.2813e-05
6.30519e-05
6.32558e-05
6.34165e-05
6.35487e-05
6.36458e-05
6.37028e-05
6.37317e-05
6.37157e-05
6.36508e-05
6.35427e-05
6.33749e-05
6.30957e-05
6.27186e-05
6.18494e-05
6.02587e-05
5.67099e-05
1.82844e-05
1.86338e-05
1.90473e-05
1.9532e-05
2.01015e-05
2.0776e-05
2.15811e-05
2.25113e-05
2.35354e-05
2.47653e-05
2.61728e-05
2.77357e-05
2.95663e-05
3.16385e-05
3.39199e-05
3.63606e-05
3.88643e-05
4.13336e-05
4.36786e-05
4.5839e-05
4.77957e-05
4.95297e-05
5.10905e-05
5.24827e-05
5.37229e-05
5.48293e-05
5.58194e-05
5.67122e-05
5.75167e-05
5.822e-05
5.88369e-05
5.93843e-05
5.98463e-05
6.02471e-05
6.05811e-05
6.08593e-05
6.10838e-05
6.1263e-05
6.1391e-05
6.14734e-05
6.15203e-05
6.15051e-05
6.14412e-05
6.13199e-05
6.11187e-05
6.07915e-05
6.0311e-05
5.92633e-05
5.75436e-05
5.34732e-05
1.82452e-05
1.84948e-05
1.87879e-05
1.91279e-05
1.95206e-05
1.99738e-05
2.04979e-05
2.1105e-05
2.18101e-05
2.2604e-05
2.33962e-05
2.43088e-05
2.53596e-05
2.65442e-05
2.78413e-05
2.93139e-05
3.09371e-05
3.27269e-05
3.46305e-05
3.66193e-05
3.86525e-05
4.06815e-05
4.26513e-05
4.4521e-05
4.62547e-05
4.78645e-05
4.93455e-05
5.06982e-05
5.19213e-05
5.29938e-05
5.39278e-05
5.47443e-05
5.54527e-05
5.60584e-05
5.65718e-05
5.70108e-05
5.73722e-05
5.76697e-05
5.79082e-05
5.80856e-05
5.82091e-05
5.82543e-05
5.8242e-05
5.81562e-05
5.79599e-05
5.76074e-05
5.70253e-05
5.58789e-05
5.3928e-05
4.92118e-05
1.82168e-05
1.83968e-05
1.8607e-05
1.88497e-05
1.9128e-05
1.94456e-05
1.9807e-05
2.02175e-05
2.06786e-05
2.11843e-05
2.1752e-05
2.23888e-05
2.30501e-05
2.37456e-05
2.45245e-05
2.5393e-05
2.63594e-05
2.73674e-05
2.84708e-05
2.97003e-05
3.10429e-05
3.25104e-05
3.40847e-05
3.575e-05
3.74534e-05
3.91768e-05
4.08763e-05
4.25109e-05
4.40539e-05
4.54724e-05
4.67522e-05
4.78908e-05
4.89119e-05
4.98229e-05
5.06329e-05
5.13506e-05
5.19733e-05
5.25074e-05
5.29659e-05
5.33254e-05
5.36094e-05
5.38029e-05
5.39108e-05
5.38815e-05
5.37282e-05
5.33928e-05
5.27239e-05
5.14363e-05
4.91113e-05
4.37467e-05
1.81953e-05
1.83242e-05
1.84747e-05
1.86486e-05
1.88481e-05
1.90751e-05
1.93321e-05
1.96155e-05
1.99285e-05
2.02748e-05
2.06571e-05
2.10783e-05
2.1542e-05
2.20518e-05
2.26121e-05
2.31837e-05
2.37531e-05
2.43526e-05
2.50145e-05
2.57455e-05
2.655e-05
2.74217e-05
2.83865e-05
2.94551e-05
3.06247e-05
3.18907e-05
3.32334e-05
3.46356e-05
3.60748e-05
3.74843e-05
3.8851e-05
4.01389e-05
4.13604e-05
4.24937e-05
4.35494e-05
4.451e-05
4.53895e-05
4.61571e-05
4.68415e-05
4.74216e-05
4.79029e-05
4.82563e-05
4.8485e-05
4.85335e-05
4.83919e-05
4.80444e-05
4.72623e-05
4.57059e-05
4.29042e-05
3.6959e-05
1.81785e-05
1.82685e-05
1.83745e-05
1.8498e-05
1.86396e-05
1.88e-05
1.89804e-05
1.91816e-05
1.94044e-05
1.96497e-05
1.99183e-05
2.02115e-05
2.05306e-05
2.0877e-05
2.12527e-05
2.16525e-05
2.2061e-05
2.2501e-05
2.29769e-05
2.34316e-05
2.39279e-05
2.44758e-05
2.50838e-05
2.57604e-05
2.65144e-05
2.73263e-05
2.82171e-05
2.9189e-05
3.02375e-05
3.13535e-05
3.25008e-05
3.36521e-05
3.47916e-05
3.59058e-05
3.6979e-05
3.79941e-05
3.89421e-05
3.97936e-05
4.056e-05
4.12191e-05
4.17673e-05
4.21843e-05
4.24495e-05
4.24579e-05
4.2254e-05
4.17385e-05
4.06131e-05
3.85112e-05
3.51828e-05
2.9396e-05
1.81649e-05
1.82241e-05
1.82952e-05
1.83794e-05
1.84776e-05
1.85904e-05
1.87183e-05
1.88615e-05
1.90205e-05
1.91955e-05
1.93868e-05
1.95949e-05
1.98202e-05
2.00633e-05
2.03155e-05
2.05757e-05
2.08526e-05
2.11482e-05
2.14652e-05
2.18071e-05
2.21781e-05
2.2584e-05
2.30326e-05
2.3455e-05
2.39344e-05
2.44847e-05
2.51067e-05
2.58006e-05
2.6564e-05
2.7399e-05
2.82874e-05
2.91975e-05
3.01108e-05
3.10114e-05
3.18835e-05
3.27101e-05
3.34777e-05
3.41705e-05
3.47794e-05
3.52779e-05
3.56638e-05
3.59044e-05
3.59461e-05
3.58107e-05
3.5358e-05
3.44216e-05
3.27706e-05
3.0382e-05
2.7143e-05
2.32384e-05
1.81538e-05
1.81889e-05
1.82334e-05
1.82882e-05
1.83538e-05
1.84305e-05
1.85185e-05
1.86179e-05
1.8729e-05
1.88516e-05
1.8986e-05
1.91323e-05
1.92859e-05
1.94459e-05
1.96153e-05
1.97944e-05
1.99841e-05
2.01855e-05
2.04003e-05
2.06307e-05
2.08795e-05
2.11346e-05
2.1412e-05
2.17246e-05
2.20823e-05
2.24956e-05
2.29671e-05
2.34729e-05
2.40374e-05
2.46555e-05
2.53132e-05
2.59871e-05
2.66564e-05
2.73072e-05
2.79218e-05
2.84806e-05
2.89687e-05
2.93714e-05
2.96768e-05
2.98582e-05
2.98972e-05
2.9825e-05
2.95673e-05
2.90381e-05
2.82037e-05
2.70187e-05
2.54137e-05
2.35665e-05
2.14781e-05
1.97363e-05
1.81448e-05
1.81608e-05
1.81854e-05
1.82175e-05
1.82572e-05
1.83046e-05
1.83603e-05
1.84243e-05
1.84953e-05
1.85732e-05
1.86585e-05
1.87511e-05
1.88509e-05
1.89575e-05
1.90704e-05
1.91892e-05
1.93143e-05
1.94462e-05
1.95822e-05
1.97207e-05
1.98689e-05
2.003e-05
2.02093e-05
2.04139e-05
2.06518e-05
2.09316e-05
2.12593e-05
2.16343e-05
2.20473e-05
2.24917e-05
2.29551e-05
2.34098e-05
2.38469e-05
2.425e-05
2.46051e-05
2.48935e-05
2.50999e-05
2.52098e-05
2.52261e-05
2.51623e-05
2.49368e-05
2.45572e-05
2.40388e-05
2.33889e-05
2.25583e-05
2.15734e-05
2.05517e-05
1.96626e-05
1.89657e-05
1.85012e-05
1.81404e-05
1.81441e-05
1.81514e-05
1.81625e-05
1.81777e-05
1.81971e-05
1.82211e-05
1.82494e-05
1.82823e-05
1.832e-05
1.83625e-05
1.84095e-05
1.84608e-05
1.85158e-05
1.85731e-05
1.8633e-05
1.86954e-05
1.876e-05
1.88272e-05
1.88999e-05
1.89796e-05
1.9068e-05
1.9168e-05
1.92825e-05
1.94142e-05
1.95651e-05
1.9735e-05
1.9921e-05
2.01185e-05
2.03206e-05
2.05199e-05
2.0705e-05
2.08635e-05
2.09845e-05
2.10587e-05
2.10783e-05
2.10382e-05
2.09372e-05
2.0774e-05
2.0557e-05
2.029e-05
1.99902e-05
1.9669e-05
1.9348e-05
1.90449e-05
1.8776e-05
1.85504e-05
1.83851e-05
1.82751e-05
1.81937e-05
)
;

boundaryField
{
    AXIS
    {
        type            empty;
    }
    OUTLET
    {
        type            calculated;
        value           nonuniform List<scalar> 
25
(
6.70977e-05
6.70803e-05
6.70408e-05
6.69677e-05
6.68524e-05
6.66761e-05
6.64324e-05
6.60903e-05
6.56386e-05
6.50919e-05
6.44358e-05
6.36078e-05
6.25172e-05
6.10598e-05
5.91704e-05
5.67099e-05
5.34732e-05
4.92118e-05
4.37467e-05
3.6959e-05
2.9396e-05
2.32384e-05
1.97363e-05
1.85012e-05
1.81937e-05
)
;
    }
    COFLOW
    {
        type            calculated;
        value           uniform 1.81402e-05;
    }
    PILOT
    {
        type            calculated;
        value           uniform 7.09187e-05;
    }
    FUEL
    {
        type            calculated;
        value           uniform 1.81402e-05;
    }
    WALL
    {
        type            calculated;
        value           nonuniform List<scalar> 
50
(
1.81404e-05
1.81441e-05
1.81514e-05
1.81625e-05
1.81777e-05
1.81971e-05
1.82211e-05
1.82494e-05
1.82823e-05
1.832e-05
1.83625e-05
1.84095e-05
1.84608e-05
1.85158e-05
1.85731e-05
1.8633e-05
1.86954e-05
1.876e-05
1.88272e-05
1.88999e-05
1.89796e-05
1.9068e-05
1.9168e-05
1.92825e-05
1.94142e-05
1.95651e-05
1.9735e-05
1.9921e-05
2.01185e-05
2.03206e-05
2.05199e-05
2.0705e-05
2.08635e-05
2.09845e-05
2.10587e-05
2.10783e-05
2.10382e-05
2.09372e-05
2.0774e-05
2.0557e-05
2.029e-05
1.99902e-05
1.9669e-05
1.9348e-05
1.90449e-05
1.8776e-05
1.85504e-05
1.83851e-05
1.82751e-05
1.81937e-05
)
;
    }
    front
    {
        type            wedge;
    }
    back
    {
        type            wedge;
    }
}


// ************************************************************************* //
