/*--------------------------------*- C++ -*----------------------------------*\
| =========                 |                                                 |
| \\      /  F ield         | OpenFOAM: The Open Source CFD Toolbox           |
|  \\    /   O peration     | Version:  2.4.x                                 |
|   \\  /    A nd           | Web:      www.OpenFOAM.org                      |
|    \\/     M anipulation  |                                                 |
\*---------------------------------------------------------------------------*/
FoamFile
{
    version     2.0;
    format      ascii;
    class       volScalarField;
    location    "0.1";
    object      thermo:psi;
}
// * * * * * * * * * * * * * * * * * * * * * * * * * * * * * * * * * * * * * //

dimensions      [0 -2 2 0 0 0 0];

internalField   nonuniform List<scalar> 
1250
(
1.0013e-05
8.92408e-06
8.00503e-06
7.28999e-06
6.70829e-06
6.23107e-06
5.83105e-06
5.49025e-06
5.1822e-06
4.85951e-06
4.57308e-06
4.32389e-06
4.09556e-06
3.88682e-06
3.69884e-06
3.52444e-06
3.37037e-06
3.23683e-06
3.11356e-06
2.99846e-06
2.89091e-06
2.78989e-06
2.69541e-06
2.61565e-06
2.53402e-06
2.45361e-06
2.37912e-06
2.31068e-06
2.24717e-06
2.18891e-06
2.13487e-06
2.08489e-06
2.0396e-06
2.00007e-06
1.96362e-06
1.93022e-06
1.89955e-06
1.87113e-06
1.845e-06
1.82092e-06
1.79845e-06
1.77778e-06
1.75857e-06
1.74037e-06
1.72442e-06
1.708e-06
1.69416e-06
1.68651e-06
1.67994e-06
1.682e-06
9.93859e-06
8.7564e-06
7.83838e-06
7.13619e-06
6.57448e-06
6.11934e-06
5.7409e-06
5.41897e-06
5.08358e-06
4.7713e-06
4.49587e-06
4.2559e-06
4.03476e-06
3.8344e-06
3.65189e-06
3.48249e-06
3.33369e-06
3.20433e-06
3.08406e-06
2.97191e-06
2.86666e-06
2.76787e-06
2.67555e-06
2.59759e-06
2.52192e-06
2.44255e-06
2.36932e-06
2.30171e-06
2.23923e-06
2.18171e-06
2.12838e-06
2.07909e-06
2.03405e-06
1.99505e-06
1.95913e-06
1.92619e-06
1.89591e-06
1.86788e-06
1.8421e-06
1.81835e-06
1.79616e-06
1.77579e-06
1.7568e-06
1.73887e-06
1.7231e-06
1.70691e-06
1.69329e-06
1.68589e-06
1.67988e-06
1.68332e-06
9.71172e-06
8.31806e-06
7.42207e-06
6.76845e-06
6.26951e-06
5.88157e-06
5.53251e-06
5.18189e-06
4.86511e-06
4.58021e-06
4.32881e-06
4.10843e-06
3.9061e-06
3.72158e-06
3.55028e-06
3.39262e-06
3.25531e-06
3.13416e-06
3.02087e-06
2.91458e-06
2.81452e-06
2.7208e-06
2.63305e-06
2.55923e-06
2.49199e-06
2.41861e-06
2.34785e-06
2.28215e-06
2.22178e-06
2.16583e-06
2.11404e-06
2.06624e-06
2.02211e-06
1.98393e-06
1.94924e-06
1.91736e-06
1.88791e-06
1.86081e-06
1.83575e-06
1.81274e-06
1.79109e-06
1.77141e-06
1.75289e-06
1.73555e-06
1.72021e-06
1.70454e-06
1.69162e-06
1.68478e-06
1.68023e-06
1.68627e-06
9.08297e-06
7.47096e-06
6.69419e-06
6.20739e-06
5.81748e-06
5.44209e-06
5.11257e-06
4.81964e-06
4.55058e-06
4.305e-06
4.09025e-06
3.90026e-06
3.72307e-06
3.55839e-06
3.40592e-06
3.26515e-06
3.14327e-06
3.03349e-06
2.92958e-06
2.83168e-06
2.73979e-06
2.65335e-06
2.5728e-06
2.50447e-06
2.44242e-06
2.38399e-06
2.31639e-06
2.25399e-06
2.19618e-06
2.14265e-06
2.0933e-06
2.04773e-06
2.0054e-06
1.96784e-06
1.93483e-06
1.90434e-06
1.87628e-06
1.85041e-06
1.8265e-06
1.80445e-06
1.78378e-06
1.765e-06
1.74732e-06
1.73083e-06
1.71623e-06
1.7014e-06
1.68929e-06
1.68321e-06
1.68083e-06
1.69132e-06
7.23911e-06
5.98372e-06
5.70101e-06
5.37699e-06
5.10081e-06
4.85483e-06
4.61845e-06
4.39316e-06
4.17946e-06
3.97971e-06
3.80887e-06
3.65117e-06
3.50357e-06
3.36571e-06
3.23504e-06
3.11121e-06
3.00701e-06
2.90961e-06
2.8177e-06
2.73063e-06
2.64881e-06
2.57174e-06
2.49926e-06
2.43745e-06
2.38141e-06
2.32863e-06
2.27681e-06
2.21794e-06
2.1637e-06
2.1136e-06
2.06715e-06
2.02405e-06
1.98431e-06
1.94762e-06
1.91637e-06
1.88784e-06
1.86154e-06
1.83726e-06
1.81476e-06
1.79399e-06
1.77465e-06
1.75698e-06
1.74039e-06
1.725e-06
1.71136e-06
1.6976e-06
1.68686e-06
1.68147e-06
1.68226e-06
1.6988e-06
3.37057e-06
4.28871e-06
4.48438e-06
4.44463e-06
4.33233e-06
4.19822e-06
4.05003e-06
3.89526e-06
3.74862e-06
3.61333e-06
3.49851e-06
3.38483e-06
3.27473e-06
3.15902e-06
3.04822e-06
2.94389e-06
2.85675e-06
2.77374e-06
2.69453e-06
2.61922e-06
2.54841e-06
2.48133e-06
2.41789e-06
2.36257e-06
2.31324e-06
2.26606e-06
2.22144e-06
2.17619e-06
2.12596e-06
2.07932e-06
2.03652e-06
1.99689e-06
1.96006e-06
1.92587e-06
1.89506e-06
1.86868e-06
1.84446e-06
1.82196e-06
1.80123e-06
1.78209e-06
1.76426e-06
1.74798e-06
1.73265e-06
1.71865e-06
1.70612e-06
1.69375e-06
1.68448e-06
1.68049e-06
1.68497e-06
1.7095e-06
2.18226e-06
3.18442e-06
3.60448e-06
3.72441e-06
3.72682e-06
3.65948e-06
3.56913e-06
3.46847e-06
3.36396e-06
3.27053e-06
3.18669e-06
3.10257e-06
3.02044e-06
2.94046e-06
2.8616e-06
2.77699e-06
2.70458e-06
2.63514e-06
2.56857e-06
2.50499e-06
2.44535e-06
2.38807e-06
2.33296e-06
2.28413e-06
2.24155e-06
2.20053e-06
2.1613e-06
2.12387e-06
2.08453e-06
2.04238e-06
2.00332e-06
1.96707e-06
1.93346e-06
1.90223e-06
1.87341e-06
1.84808e-06
1.826e-06
1.80563e-06
1.78675e-06
1.7694e-06
1.75324e-06
1.73854e-06
1.72477e-06
1.71227e-06
1.70114e-06
1.69032e-06
1.68301e-06
1.68049e-06
1.68934e-06
1.72374e-06
1.88053e-06
2.79629e-06
3.20442e-06
3.3115e-06
3.32836e-06
3.27505e-06
3.20351e-06
3.12611e-06
3.04676e-06
2.981e-06
2.91913e-06
2.85695e-06
2.79512e-06
2.73515e-06
2.67673e-06
2.62259e-06
2.56311e-06
2.50562e-06
2.4501e-06
2.39689e-06
2.34586e-06
2.29689e-06
2.24983e-06
2.20651e-06
2.16994e-06
2.13506e-06
2.10147e-06
2.06923e-06
2.03829e-06
2.00386e-06
1.96892e-06
1.93649e-06
1.90625e-06
1.87804e-06
1.85205e-06
1.82789e-06
1.8073e-06
1.78916e-06
1.77242e-06
1.75695e-06
1.74263e-06
1.72956e-06
1.71737e-06
1.70665e-06
1.69688e-06
1.68826e-06
1.68272e-06
1.68239e-06
1.6962e-06
1.74295e-06
1.93301e-06
2.8721e-06
3.20205e-06
3.19037e-06
3.11938e-06
3.049e-06
2.96411e-06
2.88668e-06
2.81552e-06
2.76068e-06
2.70883e-06
2.65847e-06
2.60935e-06
2.56204e-06
2.51586e-06
2.47452e-06
2.43391e-06
2.38604e-06
2.33955e-06
2.29494e-06
2.2524e-06
2.21132e-06
2.17167e-06
2.13388e-06
2.10296e-06
2.07347e-06
2.04488e-06
2.01763e-06
1.99114e-06
1.96575e-06
1.93521e-06
1.90639e-06
1.87967e-06
1.85468e-06
1.83164e-06
1.81017e-06
1.79015e-06
1.77372e-06
1.75908e-06
1.74554e-06
1.73302e-06
1.72187e-06
1.71153e-06
1.7027e-06
1.69477e-06
1.68813e-06
1.68494e-06
1.68679e-06
1.70634e-06
1.76782e-06
2.6487e-06
3.6857e-06
3.74464e-06
3.38628e-06
3.14657e-06
2.97868e-06
2.85533e-06
2.75325e-06
2.66839e-06
2.59595e-06
2.53495e-06
2.48167e-06
2.43364e-06
2.39082e-06
2.35202e-06
2.32728e-06
2.30281e-06
2.26781e-06
2.23152e-06
2.19676e-06
2.16323e-06
2.13082e-06
2.09989e-06
2.07018e-06
2.0438e-06
2.01875e-06
1.99444e-06
1.97137e-06
1.94897e-06
1.92741e-06
1.90416e-06
1.87898e-06
1.85546e-06
1.83362e-06
1.81319e-06
1.79442e-06
1.7769e-06
1.76083e-06
1.74783e-06
1.73628e-06
1.72571e-06
1.71651e-06
1.70815e-06
1.70105e-06
1.69494e-06
1.69069e-06
1.68955e-06
1.69438e-06
1.72018e-06
1.79786e-06
7.62887e-06
5.94326e-06
5.00664e-06
4.07344e-06
3.47089e-06
3.12235e-06
2.89756e-06
2.73753e-06
2.63099e-06
2.54256e-06
2.46061e-06
2.39143e-06
2.33451e-06
2.28493e-06
2.2427e-06
2.22011e-06
2.19905e-06
2.17123e-06
2.14319e-06
2.11617e-06
2.09003e-06
2.06448e-06
2.03997e-06
2.0161e-06
1.99356e-06
1.97228e-06
1.95192e-06
1.93222e-06
1.9131e-06
1.89478e-06
1.87679e-06
1.8548e-06
1.83455e-06
1.81545e-06
1.79791e-06
1.78154e-06
1.76657e-06
1.75264e-06
1.74038e-06
1.73028e-06
1.72164e-06
1.71432e-06
1.70798e-06
1.70284e-06
1.69859e-06
1.6971e-06
1.69851e-06
1.70642e-06
1.74073e-06
1.83415e-06
1.02429e-05
8.25096e-06
6.90259e-06
5.50253e-06
4.3697e-06
3.63587e-06
3.18077e-06
2.90839e-06
2.7184e-06
2.58129e-06
2.4831e-06
2.40213e-06
2.33702e-06
2.28249e-06
2.23831e-06
2.19629e-06
2.15527e-06
2.12001e-06
2.09109e-06
2.06453e-06
2.04009e-06
2.0169e-06
1.99497e-06
1.97403e-06
1.95427e-06
1.93591e-06
1.91828e-06
1.90133e-06
1.88502e-06
1.86928e-06
1.85402e-06
1.8358e-06
1.8184e-06
1.8021e-06
1.78707e-06
1.77326e-06
1.76044e-06
1.74916e-06
1.73883e-06
1.7299e-06
1.72245e-06
1.71691e-06
1.71285e-06
1.70994e-06
1.70795e-06
1.70925e-06
1.71345e-06
1.7255e-06
1.76962e-06
1.88063e-06
1.11323e-05
9.76987e-06
8.62717e-06
7.35343e-06
6.01788e-06
4.85699e-06
3.99045e-06
3.4194e-06
3.05328e-06
2.81066e-06
2.63877e-06
2.50553e-06
2.40522e-06
2.32664e-06
2.26315e-06
2.20949e-06
2.16388e-06
2.12427e-06
2.08911e-06
2.05723e-06
2.02853e-06
2.00207e-06
1.97769e-06
1.95471e-06
1.93426e-06
1.91703e-06
1.90067e-06
1.8851e-06
1.87025e-06
1.85608e-06
1.8424e-06
1.82605e-06
1.81087e-06
1.79697e-06
1.7843e-06
1.77262e-06
1.76214e-06
1.75304e-06
1.74491e-06
1.73824e-06
1.73256e-06
1.72848e-06
1.72603e-06
1.72555e-06
1.7264e-06
1.73089e-06
1.7378e-06
1.75628e-06
1.81068e-06
1.94334e-06
1.14453e-05
1.06086e-05
9.74784e-06
8.83913e-06
7.78986e-06
6.67555e-06
5.59176e-06
4.6549e-06
3.94251e-06
3.42417e-06
3.06902e-06
2.81794e-06
2.63606e-06
2.50168e-06
2.39583e-06
2.31045e-06
2.24247e-06
2.18468e-06
2.13624e-06
2.09413e-06
2.05757e-06
2.02534e-06
1.99634e-06
1.96974e-06
1.94706e-06
1.92791e-06
1.91039e-06
1.89408e-06
1.87874e-06
1.86437e-06
1.84857e-06
1.83347e-06
1.81971e-06
1.80717e-06
1.79613e-06
1.7862e-06
1.77755e-06
1.77006e-06
1.76408e-06
1.75931e-06
1.75587e-06
1.75408e-06
1.75395e-06
1.75557e-06
1.75904e-06
1.76691e-06
1.7781e-06
1.80423e-06
1.86984e-06
2.03038e-06
1.15799e-05
1.10428e-05
1.04518e-05
9.78544e-06
9.06372e-06
8.25908e-06
7.39141e-06
6.48317e-06
5.59368e-06
4.7957e-06
4.13717e-06
3.63637e-06
3.26979e-06
2.99074e-06
2.78178e-06
2.62145e-06
2.49596e-06
2.39482e-06
2.31134e-06
2.23945e-06
2.18013e-06
2.1298e-06
2.08643e-06
2.04859e-06
2.01803e-06
1.99165e-06
1.96784e-06
1.94603e-06
1.92462e-06
1.90459e-06
1.8864e-06
1.8703e-06
1.85607e-06
1.84347e-06
1.83275e-06
1.82326e-06
1.81547e-06
1.80914e-06
1.8045e-06
1.80159e-06
1.80004e-06
1.80022e-06
1.80255e-06
1.80657e-06
1.81334e-06
1.82505e-06
1.84048e-06
1.8764e-06
1.95584e-06
2.14987e-06
1.16507e-05
1.12868e-05
1.08758e-05
1.0415e-05
9.89405e-06
9.30876e-06
8.71138e-06
8.03786e-06
7.33341e-06
6.60231e-06
5.88206e-06
5.20464e-06
4.59343e-06
4.07613e-06
3.65975e-06
3.33328e-06
3.07786e-06
2.87505e-06
2.7147e-06
2.58412e-06
2.47773e-06
2.38864e-06
2.31326e-06
2.24996e-06
2.19604e-06
2.14795e-06
2.10489e-06
2.06731e-06
2.03443e-06
2.00546e-06
1.98071e-06
1.95893e-06
1.94026e-06
1.92459e-06
1.91149e-06
1.90052e-06
1.89208e-06
1.88531e-06
1.88054e-06
1.87802e-06
1.87709e-06
1.87861e-06
1.88275e-06
1.88926e-06
1.89899e-06
1.91478e-06
1.93601e-06
1.98569e-06
2.08102e-06
2.31855e-06
1.1694e-05
1.14375e-05
1.11452e-05
1.08173e-05
1.0451e-05
1.00417e-05
9.58493e-06
9.09589e-06
8.60047e-06
8.05781e-06
7.49765e-06
6.94119e-06
6.36394e-06
5.79183e-06
5.2447e-06
4.73833e-06
4.28858e-06
3.90213e-06
3.57907e-06
3.31363e-06
3.09627e-06
2.9197e-06
2.77245e-06
2.64954e-06
2.54624e-06
2.45862e-06
2.38364e-06
2.31865e-06
2.26213e-06
2.21419e-06
2.17325e-06
2.1378e-06
2.10847e-06
2.08351e-06
2.06304e-06
2.04625e-06
2.0329e-06
2.0224e-06
2.01504e-06
2.01043e-06
2.00795e-06
2.00913e-06
2.01315e-06
2.02056e-06
2.03267e-06
2.05236e-06
2.08146e-06
2.1468e-06
2.26091e-06
2.56732e-06
1.17233e-05
1.15385e-05
1.13273e-05
1.10898e-05
1.08252e-05
1.0532e-05
1.02081e-05
9.85192e-06
9.46196e-06
9.05057e-06
8.66666e-06
8.25436e-06
7.81532e-06
7.36114e-06
6.90762e-06
6.44122e-06
5.97891e-06
5.52336e-06
5.09187e-06
4.69109e-06
4.32647e-06
4.00158e-06
3.71826e-06
3.47481e-06
3.26859e-06
3.09211e-06
2.94125e-06
2.81221e-06
2.70219e-06
2.61052e-06
2.53409e-06
2.46976e-06
2.41574e-06
2.37081e-06
2.33359e-06
2.30243e-06
2.27718e-06
2.2567e-06
2.24048e-06
2.22855e-06
2.22029e-06
2.21729e-06
2.21809e-06
2.22377e-06
2.23682e-06
2.26056e-06
2.30043e-06
2.38219e-06
2.53176e-06
2.95229e-06
1.17447e-05
1.16106e-05
1.1457e-05
1.12837e-05
1.109e-05
1.08753e-05
1.06389e-05
1.038e-05
1.01007e-05
9.8076e-06
9.49395e-06
9.16012e-06
8.83217e-06
8.50623e-06
8.1624e-06
7.80322e-06
7.43077e-06
7.06972e-06
6.70351e-06
6.32749e-06
5.9513e-06
5.5764e-06
5.21123e-06
4.86141e-06
4.53755e-06
4.24041e-06
3.97384e-06
3.73934e-06
3.53554e-06
3.36171e-06
3.21499e-06
3.09185e-06
2.98695e-06
2.89748e-06
2.82099e-06
2.75551e-06
2.70037e-06
2.65428e-06
2.61557e-06
2.58571e-06
2.56242e-06
2.54665e-06
2.53782e-06
2.53991e-06
2.55191e-06
2.57874e-06
2.63369e-06
2.74481e-06
2.96358e-06
3.57194e-06
1.17609e-05
1.16644e-05
1.15534e-05
1.14271e-05
1.1285e-05
1.11266e-05
1.09516e-05
1.07635e-05
1.05616e-05
1.03451e-05
1.01139e-05
9.86847e-06
9.60877e-06
9.33518e-06
9.04813e-06
8.76901e-06
8.50368e-06
8.23715e-06
7.95726e-06
7.66448e-06
7.36049e-06
7.05104e-06
6.73058e-06
6.40016e-06
6.06519e-06
5.73083e-06
5.40476e-06
5.09227e-06
4.79793e-06
4.53274e-06
4.2952e-06
4.08734e-06
3.90317e-06
3.74266e-06
3.60139e-06
3.4793e-06
3.37255e-06
3.28309e-06
3.20609e-06
3.14277e-06
3.09151e-06
3.0545e-06
3.03074e-06
3.02548e-06
3.03961e-06
3.07515e-06
3.15782e-06
3.33261e-06
3.68403e-06
4.62723e-06
1.17735e-05
1.17059e-05
1.16272e-05
1.15364e-05
1.14337e-05
1.13192e-05
1.11925e-05
1.10538e-05
1.09033e-05
1.07414e-05
1.05684e-05
1.03845e-05
1.019e-05
9.9851e-06
9.77008e-06
9.54903e-06
9.33084e-06
9.10423e-06
8.86852e-06
8.65189e-06
8.42447e-06
8.1838e-06
7.92869e-06
7.65856e-06
7.37348e-06
7.0836e-06
6.78466e-06
6.47934e-06
6.17214e-06
5.86823e-06
5.5781e-06
5.30746e-06
5.05807e-06
4.83024e-06
4.62454e-06
4.44138e-06
4.27955e-06
4.14131e-06
4.02226e-06
3.92372e-06
3.84437e-06
3.78552e-06
3.74876e-06
3.74737e-06
3.77533e-06
3.84776e-06
4.01335e-06
4.35133e-06
4.97625e-06
6.41763e-06
1.17838e-05
1.17392e-05
1.1686e-05
1.16236e-05
1.15514e-05
1.14693e-05
1.13774e-05
1.12758e-05
1.11647e-05
1.10445e-05
1.09154e-05
1.07775e-05
1.06314e-05
1.04772e-05
1.03208e-05
1.01632e-05
9.99949e-06
9.8292e-06
9.65154e-06
9.46533e-06
9.26947e-06
9.06223e-06
8.84124e-06
8.64038e-06
8.4207e-06
8.17878e-06
7.91777e-06
7.6411e-06
7.35314e-06
7.05649e-06
6.76015e-06
6.47527e-06
6.20686e-06
5.95798e-06
5.73073e-06
5.52683e-06
5.3468e-06
5.19162e-06
5.0606e-06
4.9569e-06
4.87875e-06
4.83103e-06
4.82302e-06
4.85007e-06
4.94123e-06
5.13799e-06
5.51375e-06
6.13236e-06
7.14784e-06
8.74295e-06
1.17922e-05
1.17657e-05
1.17323e-05
1.16913e-05
1.16425e-05
1.1586e-05
1.15216e-05
1.14495e-05
1.13699e-05
1.1283e-05
1.11889e-05
1.10879e-05
1.09834e-05
1.08761e-05
1.07643e-05
1.0648e-05
1.0527e-05
1.04009e-05
1.02689e-05
1.01302e-05
9.98364e-06
9.83658e-06
9.68035e-06
9.50877e-06
9.3181e-06
9.10499e-06
8.87086e-06
8.62993e-06
8.37264e-06
8.10407e-06
7.83234e-06
7.56792e-06
7.31838e-06
7.08743e-06
6.87929e-06
6.69785e-06
6.54517e-06
6.42307e-06
6.33281e-06
6.28021e-06
6.26925e-06
6.29053e-06
6.36641e-06
6.52612e-06
6.78965e-06
7.19161e-06
7.79525e-06
8.58912e-06
9.6444e-06
1.06856e-05
1.1799e-05
1.17869e-05
1.17683e-05
1.17442e-05
1.17145e-05
1.16791e-05
1.16378e-05
1.15906e-05
1.15386e-05
1.14819e-05
1.14204e-05
1.13542e-05
1.12835e-05
1.12087e-05
1.11304e-05
1.10489e-05
1.09641e-05
1.08758e-05
1.07859e-05
1.06954e-05
1.05998e-05
1.04974e-05
1.03852e-05
1.02594e-05
1.01161e-05
9.95155e-06
9.76397e-06
9.55591e-06
9.33463e-06
9.10524e-06
8.87522e-06
8.65825e-06
8.45732e-06
8.27826e-06
8.12522e-06
8.00415e-06
7.91926e-06
7.87475e-06
7.86849e-06
7.89468e-06
7.98768e-06
8.14774e-06
8.37407e-06
8.67137e-06
9.0751e-06
9.59188e-06
1.01774e-05
1.07334e-05
1.1203e-05
1.15343e-05
1.18023e-05
1.17995e-05
1.1794e-05
1.17856e-05
1.17742e-05
1.17595e-05
1.17415e-05
1.17203e-05
1.16957e-05
1.16676e-05
1.16361e-05
1.16014e-05
1.15636e-05
1.15234e-05
1.14817e-05
1.14384e-05
1.13935e-05
1.13474e-05
1.12996e-05
1.12483e-05
1.11925e-05
1.1131e-05
1.10622e-05
1.09841e-05
1.08953e-05
1.07951e-05
1.06839e-05
1.05643e-05
1.04396e-05
1.03143e-05
1.01931e-05
1.00825e-05
9.98936e-06
9.91917e-06
9.8766e-06
9.86557e-06
9.88878e-06
9.94734e-06
1.0043e-05
1.01722e-05
1.03347e-05
1.05219e-05
1.07282e-05
1.09408e-05
1.11476e-05
1.13362e-05
1.14983e-05
1.16194e-05
1.17011e-05
1.17621e-05
)
;

boundaryField
{
    AXIS
    {
        type            empty;
    }
    OUTLET
    {
        type            calculated;
        value           nonuniform List<scalar> 
25
(
1.682e-06
1.68332e-06
1.68627e-06
1.69132e-06
1.6988e-06
1.7095e-06
1.72374e-06
1.74295e-06
1.76782e-06
1.79786e-06
1.83415e-06
1.88063e-06
1.94334e-06
2.03038e-06
2.14987e-06
2.31855e-06
2.56732e-06
2.95229e-06
3.57194e-06
4.62723e-06
6.41763e-06
8.74295e-06
1.06856e-05
1.15343e-05
1.17621e-05
)
;
    }
    COFLOW
    {
        type            calculated;
        value           uniform 1.18025e-05;
    }
    PILOT
    {
        type            calculated;
        value           uniform 1.56801e-06;
    }
    FUEL
    {
        type            calculated;
        value           uniform 1.04958e-05;
    }
    WALL
    {
        type            calculated;
        value           nonuniform List<scalar> 
50
(
1.18023e-05
1.17995e-05
1.1794e-05
1.17856e-05
1.17742e-05
1.17595e-05
1.17415e-05
1.17203e-05
1.16957e-05
1.16676e-05
1.16361e-05
1.16014e-05
1.15636e-05
1.15234e-05
1.14817e-05
1.14384e-05
1.13935e-05
1.13474e-05
1.12996e-05
1.12483e-05
1.11925e-05
1.1131e-05
1.10622e-05
1.09841e-05
1.08953e-05
1.07951e-05
1.06839e-05
1.05643e-05
1.04396e-05
1.03143e-05
1.01931e-05
1.00825e-05
9.98936e-06
9.91917e-06
9.8766e-06
9.86557e-06
9.88878e-06
9.94734e-06
1.0043e-05
1.01722e-05
1.03347e-05
1.05219e-05
1.07282e-05
1.09408e-05
1.11476e-05
1.13362e-05
1.14983e-05
1.16194e-05
1.17011e-05
1.17621e-05
)
;
    }
    front
    {
        type            wedge;
    }
    back
    {
        type            wedge;
    }
}


// ************************************************************************* //
