/*--------------------------------*- C++ -*----------------------------------*\
| =========                 |                                                 |
| \\      /  F ield         | OpenFOAM: The Open Source CFD Toolbox           |
|  \\    /   O peration     | Version:  2.4.x                                 |
|   \\  /    A nd           | Web:      www.OpenFOAM.org                      |
|    \\/     M anipulation  |                                                 |
\*---------------------------------------------------------------------------*/
FoamFile
{
    version     2.0;
    format      ascii;
    class       volScalarField;
    location    "0.1";
    object      thermo:alpha;
}
// * * * * * * * * * * * * * * * * * * * * * * * * * * * * * * * * * * * * * //

dimensions      [1 -1 -1 0 0 0 0];

internalField   nonuniform List<scalar> 
1250
(
2.72204e-05
2.99464e-05
3.26828e-05
3.5169e-05
3.74832e-05
3.96231e-05
4.1619e-05
4.34909e-05
4.53348e-05
4.74236e-05
4.94539e-05
5.13798e-05
5.32915e-05
5.51797e-05
5.7012e-05
5.88364e-05
6.05616e-05
6.21533e-05
6.37111e-05
6.5253e-05
6.67761e-05
6.82859e-05
6.97744e-05
7.10981e-05
7.25014e-05
7.39428e-05
7.53444e-05
7.66948e-05
7.80056e-05
7.92626e-05
8.0479e-05
8.16514e-05
8.27585e-05
8.37659e-05
8.47285e-05
8.56429e-05
8.65114e-05
8.73432e-05
8.81342e-05
8.88864e-05
8.96126e-05
9.03003e-05
9.0961e-05
9.16104e-05
9.21941e-05
9.28189e-05
9.33765e-05
9.37304e-05
9.41733e-05
9.48005e-05
2.73914e-05
3.04112e-05
3.32304e-05
3.57537e-05
3.80629e-05
4.01676e-05
4.21094e-05
4.39208e-05
4.59611e-05
4.80388e-05
5.00431e-05
5.19436e-05
5.38374e-05
5.5689e-05
5.75027e-05
5.93073e-05
6.1002e-05
6.25683e-05
6.41108e-05
6.56346e-05
6.71446e-05
6.86393e-05
7.01108e-05
7.14188e-05
7.27384e-05
7.41706e-05
7.55575e-05
7.68991e-05
7.8196e-05
7.94434e-05
8.06497e-05
8.18113e-05
8.29164e-05
8.39144e-05
8.48669e-05
8.57718e-05
8.66324e-05
8.74555e-05
8.82384e-05
8.89826e-05
8.97017e-05
9.03811e-05
9.10362e-05
9.16778e-05
9.22559e-05
9.28741e-05
9.34241e-05
9.37708e-05
9.41958e-05
9.47776e-05
2.7925e-05
3.16925e-05
3.46797e-05
3.72354e-05
3.94599e-05
4.139e-05
4.32908e-05
4.5364e-05
4.74174e-05
4.94351e-05
5.13738e-05
5.32158e-05
5.50377e-05
5.68233e-05
5.85991e-05
6.03473e-05
6.197e-05
6.34875e-05
6.49896e-05
6.64777e-05
6.79543e-05
6.9411e-05
7.08451e-05
7.21129e-05
7.33187e-05
7.46699e-05
7.60288e-05
7.7349e-05
7.86176e-05
7.98448e-05
8.10288e-05
8.21669e-05
8.32593e-05
8.42445e-05
8.51727e-05
8.60558e-05
8.68988e-05
8.77008e-05
8.8467e-05
8.91927e-05
8.98982e-05
9.05594e-05
9.12017e-05
9.18262e-05
9.23917e-05
9.29945e-05
9.35216e-05
9.38508e-05
9.42298e-05
9.47254e-05
2.95078e-05
3.44852e-05
3.75435e-05
3.97735e-05
4.17588e-05
4.38368e-05
4.58368e-05
4.77739e-05
4.9705e-05
5.16146e-05
5.34216e-05
5.51418e-05
5.68583e-05
5.85629e-05
6.02463e-05
6.19019e-05
6.34211e-05
6.48689e-05
6.63133e-05
6.77459e-05
6.91597e-05
7.05564e-05
7.19219e-05
7.31355e-05
7.42845e-05
7.54091e-05
7.67331e-05
7.80111e-05
7.92476e-05
8.04412e-05
8.15875e-05
8.26885e-05
8.37502e-05
8.47299e-05
8.56246e-05
8.64792e-05
8.72916e-05
8.80656e-05
8.8804e-05
8.95061e-05
9.0186e-05
9.08229e-05
9.14424e-05
9.20415e-05
9.25851e-05
9.31628e-05
9.36628e-05
9.3968e-05
9.42788e-05
9.46282e-05
3.52913e-05
4.07762e-05
4.23755e-05
4.42552e-05
4.59785e-05
4.76179e-05
4.92988e-05
5.10123e-05
5.27528e-05
5.44971e-05
5.60995e-05
5.7675e-05
5.9243e-05
6.07983e-05
6.23568e-05
6.39168e-05
6.53089e-05
6.66772e-05
6.80326e-05
6.93791e-05
7.07049e-05
7.20118e-05
7.3297e-05
7.44426e-05
7.55222e-05
7.65767e-05
7.76458e-05
7.88806e-05
8.00672e-05
8.12084e-05
8.23087e-05
8.33688e-05
8.4383e-05
8.53534e-05
8.62134e-05
8.70254e-05
8.77983e-05
8.85346e-05
8.92385e-05
8.99084e-05
9.05527e-05
9.11591e-05
9.17479e-05
9.23142e-05
9.28287e-05
9.3374e-05
9.38288e-05
9.41121e-05
9.43225e-05
9.44739e-05
6.05595e-05
5.18583e-05
5.0411e-05
5.07573e-05
5.16604e-05
5.27643e-05
5.40359e-05
5.54343e-05
5.68398e-05
5.8215e-05
5.94492e-05
6.07263e-05
6.20219e-05
6.34444e-05
6.48814e-05
6.63083e-05
6.75644e-05
6.88161e-05
7.00643e-05
7.13037e-05
7.25206e-05
7.37221e-05
7.4906e-05
7.5981e-05
7.6976e-05
7.79598e-05
7.8922e-05
7.99224e-05
8.10504e-05
8.21391e-05
8.31768e-05
8.41729e-05
8.51315e-05
8.6052e-05
8.69112e-05
8.76755e-05
8.83992e-05
8.90927e-05
8.97514e-05
9.03782e-05
9.09816e-05
9.15489e-05
9.21017e-05
9.26254e-05
9.31057e-05
9.36082e-05
9.40134e-05
9.42519e-05
9.43455e-05
9.42367e-05
8.09668e-05
6.37711e-05
5.88371e-05
5.75404e-05
5.74662e-05
5.8101e-05
5.90017e-05
6.00573e-05
6.12097e-05
6.22898e-05
6.33033e-05
6.43661e-05
6.54501e-05
6.65508e-05
6.76809e-05
6.89378e-05
7.00654e-05
7.11918e-05
7.23159e-05
7.34328e-05
7.45232e-05
7.56102e-05
7.66951e-05
7.7693e-05
7.85945e-05
7.94901e-05
8.03735e-05
8.12419e-05
8.21704e-05
8.31812e-05
8.41517e-05
8.50839e-05
8.59777e-05
8.68354e-05
8.76529e-05
8.83972e-05
8.9069e-05
8.97081e-05
9.03185e-05
9.08972e-05
9.14532e-05
9.19747e-05
9.24814e-05
9.29581e-05
9.33951e-05
9.38486e-05
9.41874e-05
9.43787e-05
9.43335e-05
9.39077e-05
8.98655e-05
7.02866e-05
6.42768e-05
6.27256e-05
6.2353e-05
6.28584e-05
6.36283e-05
6.45245e-05
6.54992e-05
6.63426e-05
6.71701e-05
6.8038e-05
6.89371e-05
6.98428e-05
7.07595e-05
7.16445e-05
7.26398e-05
7.36367e-05
7.4636e-05
7.56291e-05
7.66161e-05
7.75971e-05
7.85735e-05
7.95038e-05
8.03165e-05
8.1114e-05
8.1904e-05
8.26831e-05
8.34516e-05
8.43122e-05
8.5203e-05
8.60567e-05
8.68782e-05
8.76684e-05
8.84195e-05
8.9139e-05
8.97751e-05
9.03554e-05
9.09072e-05
9.14325e-05
9.19351e-05
9.2408e-05
9.28661e-05
9.32865e-05
9.36804e-05
9.4063e-05
9.43402e-05
9.44612e-05
9.42585e-05
9.34437e-05
8.91342e-05
7.03317e-05
6.5314e-05
6.50527e-05
6.56547e-05
6.63552e-05
6.73355e-05
6.82929e-05
6.92267e-05
6.99736e-05
7.07134e-05
7.14658e-05
7.22317e-05
7.29982e-05
7.37757e-05
7.44983e-05
7.52286e-05
7.61094e-05
7.69965e-05
7.78768e-05
7.87447e-05
7.96111e-05
8.04746e-05
8.13242e-05
8.20426e-05
8.27465e-05
8.34464e-05
8.41308e-05
8.48126e-05
8.54831e-05
8.62822e-05
8.70579e-05
8.77987e-05
8.85122e-05
8.91901e-05
8.98404e-05
9.04644e-05
9.09979e-05
9.14895e-05
9.19586e-05
9.24066e-05
9.28207e-05
9.32208e-05
9.35791e-05
9.39137e-05
9.42307e-05
9.44275e-05
9.44779e-05
9.40944e-05
9.2828e-05
7.48932e-05
6.11066e-05
6.00994e-05
6.3531e-05
6.60836e-05
6.80216e-05
6.95388e-05
7.08813e-05
7.20661e-05
7.31297e-05
7.40592e-05
7.49051e-05
7.56952e-05
7.64242e-05
7.71142e-05
7.7575e-05
7.80473e-05
7.87331e-05
7.9468e-05
8.01943e-05
8.09173e-05
8.16394e-05
8.2349e-05
8.30511e-05
8.36877e-05
8.43066e-05
8.49217e-05
8.55199e-05
8.61146e-05
8.67001e-05
8.73351e-05
8.80254e-05
8.86888e-05
8.93227e-05
8.99324e-05
9.05093e-05
9.10634e-05
9.15867e-05
9.20297e-05
9.24382e-05
9.28255e-05
9.31773e-05
9.35134e-05
9.3814e-05
9.40886e-05
9.43254e-05
9.44507e-05
9.44055e-05
9.38277e-05
9.20819e-05
3.73461e-05
4.47379e-05
5.01839e-05
5.71838e-05
6.29192e-05
6.6807e-05
6.96136e-05
7.17826e-05
7.33007e-05
7.46389e-05
7.59704e-05
7.71354e-05
7.81256e-05
7.90208e-05
7.98106e-05
8.02225e-05
8.06223e-05
8.11777e-05
8.17596e-05
8.2339e-05
8.29175e-05
8.35017e-05
8.40767e-05
8.46531e-05
8.52112e-05
8.57494e-05
8.6277e-05
8.67992e-05
8.73175e-05
8.78251e-05
8.83336e-05
8.89447e-05
8.95232e-05
9.00834e-05
9.06134e-05
9.11215e-05
9.16005e-05
9.20594e-05
9.24779e-05
9.28396e-05
9.31642e-05
9.34544e-05
9.37232e-05
9.39575e-05
9.41699e-05
9.43134e-05
9.43513e-05
9.42093e-05
9.33724e-05
9.11858e-05
2.95944e-05
3.51481e-05
4.0161e-05
4.71179e-05
5.48318e-05
6.14269e-05
6.64758e-05
6.98983e-05
7.25566e-05
7.46208e-05
7.61763e-05
7.75272e-05
7.86583e-05
7.9643e-05
8.0465e-05
8.12822e-05
8.21061e-05
8.28218e-05
8.34185e-05
8.39849e-05
8.45223e-05
8.50496e-05
8.55629e-05
8.60672e-05
8.65587e-05
8.70265e-05
8.74871e-05
8.79402e-05
8.83861e-05
8.88251e-05
8.92597e-05
8.97711e-05
9.02704e-05
9.07507e-05
9.12065e-05
9.16375e-05
9.20494e-05
9.24249e-05
9.27802e-05
9.31008e-05
9.33835e-05
9.36132e-05
9.38049e-05
9.39629e-05
9.40993e-05
9.4148e-05
9.40918e-05
9.38226e-05
9.26991e-05
9.00538e-05
2.76118e-05
3.07519e-05
3.39424e-05
3.83349e-05
4.43163e-05
5.12835e-05
5.81643e-05
6.39057e-05
6.83065e-05
7.15933e-05
7.41455e-05
7.62802e-05
7.79805e-05
7.93721e-05
8.05376e-05
8.15577e-05
8.24508e-05
8.32495e-05
8.3979e-05
8.46598e-05
8.52895e-05
8.58874e-05
8.64531e-05
8.70011e-05
8.75029e-05
8.79361e-05
8.83575e-05
8.87677e-05
8.9168e-05
8.9557e-05
8.99403e-05
9.03933e-05
9.08251e-05
9.12306e-05
9.16118e-05
9.19732e-05
9.23086e-05
9.26108e-05
9.28918e-05
9.31356e-05
9.33557e-05
9.35327e-05
9.36664e-05
9.37417e-05
9.37833e-05
9.37242e-05
9.35792e-05
9.31208e-05
9.172e-05
8.85609e-05
2.6972e-05
2.87441e-05
3.08055e-05
3.33052e-05
3.67198e-05
4.11758e-05
4.66723e-05
5.27876e-05
5.86983e-05
6.39919e-05
6.82899e-05
7.17408e-05
7.44951e-05
7.6689e-05
7.85236e-05
8.00796e-05
8.1367e-05
8.25025e-05
8.3484e-05
8.43625e-05
8.51462e-05
8.5856e-05
8.65112e-05
8.71281e-05
8.76667e-05
8.81319e-05
8.85666e-05
8.89798e-05
8.93771e-05
8.97566e-05
9.01739e-05
9.05805e-05
9.09605e-05
9.13149e-05
9.16374e-05
9.19355e-05
9.22052e-05
9.24479e-05
9.2653e-05
9.28286e-05
9.29702e-05
9.30677e-05
9.31211e-05
9.31246e-05
9.30795e-05
9.29106e-05
9.26364e-05
9.19704e-05
9.03015e-05
8.65625e-05
2.67056e-05
2.77984e-05
2.91e-05
3.07109e-05
3.26561e-05
3.51204e-05
3.82124e-05
4.20742e-05
4.66909e-05
5.18079e-05
5.70081e-05
6.1788e-05
6.59038e-05
6.94759e-05
7.2452e-05
7.49411e-05
7.70298e-05
7.8813e-05
8.03584e-05
8.17495e-05
8.29394e-05
8.39833e-05
8.49101e-05
8.57413e-05
8.64286e-05
8.70347e-05
8.75929e-05
8.8115e-05
8.86335e-05
8.91267e-05
8.95835e-05
8.99959e-05
9.03683e-05
9.07055e-05
9.10009e-05
9.12685e-05
9.14964e-05
9.16899e-05
9.18411e-05
9.19485e-05
9.20217e-05
9.20502e-05
9.20214e-05
9.19474e-05
9.17997e-05
9.15179e-05
9.11314e-05
9.02265e-05
8.82769e-05
8.39671e-05
2.65674e-05
2.7292e-05
2.81554e-05
2.91857e-05
3.0439e-05
3.19735e-05
3.36985e-05
3.58699e-05
3.84499e-05
4.15411e-05
4.51087e-05
4.90773e-05
5.3331e-05
5.75923e-05
6.1603e-05
6.52194e-05
6.84072e-05
7.12033e-05
7.36058e-05
7.57061e-05
7.7522e-05
7.91226e-05
8.0539e-05
8.17748e-05
8.28628e-05
8.3863e-05
8.47853e-05
8.56099e-05
8.63488e-05
8.70141e-05
8.7593e-05
8.81123e-05
8.85657e-05
8.89529e-05
8.92832e-05
8.95654e-05
8.97886e-05
8.99727e-05
9.01087e-05
9.01896e-05
9.02319e-05
9.02126e-05
9.01257e-05
8.99793e-05
8.97506e-05
8.93681e-05
8.885e-05
8.76545e-05
8.54655e-05
8.05792e-05
2.64837e-05
2.69877e-05
2.75842e-05
2.8283e-05
2.91039e-05
3.00755e-05
3.12345e-05
3.25726e-05
3.40442e-05
3.58093e-05
3.78258e-05
4.00602e-05
4.26702e-05
4.56147e-05
4.88427e-05
5.22798e-05
5.57888e-05
5.92358e-05
6.25015e-05
6.55104e-05
6.82332e-05
7.06418e-05
7.28064e-05
7.47347e-05
7.64503e-05
7.79794e-05
7.93466e-05
8.05786e-05
8.16882e-05
8.26578e-05
8.35077e-05
8.42621e-05
8.48985e-05
8.54507e-05
8.59109e-05
8.62944e-05
8.66042e-05
8.68516e-05
8.70287e-05
8.7143e-05
8.72086e-05
8.71887e-05
8.71017e-05
8.69356e-05
8.6659e-05
8.62088e-05
8.55467e-05
8.41025e-05
8.1731e-05
7.61096e-05
2.64271e-05
2.67872e-05
2.721e-05
2.77004e-05
2.82666e-05
2.89199e-05
2.9675e-05
3.05494e-05
3.15641e-05
3.2706e-05
3.38445e-05
3.51547e-05
3.66614e-05
3.83576e-05
4.02114e-05
4.23114e-05
4.46201e-05
4.71574e-05
4.98465e-05
5.26447e-05
5.54945e-05
5.83288e-05
6.10739e-05
6.36772e-05
6.60927e-05
6.83329e-05
7.03912e-05
7.22688e-05
7.39647e-05
7.54503e-05
7.6743e-05
7.78724e-05
7.88515e-05
7.96884e-05
8.03975e-05
8.10035e-05
8.15024e-05
8.19131e-05
8.22424e-05
8.24872e-05
8.26578e-05
8.27203e-05
8.27034e-05
8.2585e-05
8.2314e-05
8.18271e-05
8.10228e-05
7.94385e-05
7.67409e-05
7.02039e-05
2.63861e-05
2.66458e-05
2.69491e-05
2.72992e-05
2.77006e-05
2.81585e-05
2.86795e-05
2.9271e-05
2.99354e-05
3.06635e-05
3.14806e-05
3.23967e-05
3.33473e-05
3.43464e-05
3.54643e-05
3.67096e-05
3.80935e-05
3.95349e-05
4.111e-05
4.2862e-05
4.47707e-05
4.68514e-05
4.90769e-05
5.14235e-05
5.38157e-05
5.62286e-05
5.86016e-05
6.08798e-05
6.30285e-05
6.50048e-05
6.67877e-05
6.83723e-05
6.9792e-05
7.10575e-05
7.21818e-05
7.31774e-05
7.40408e-05
7.47809e-05
7.5416e-05
7.59138e-05
7.63069e-05
7.65746e-05
7.67238e-05
7.66829e-05
7.64703e-05
7.60054e-05
7.50783e-05
7.32931e-05
7.00657e-05
6.25988e-05
2.63551e-05
2.65411e-05
2.67582e-05
2.70092e-05
2.72969e-05
2.76243e-05
2.7995e-05
2.84035e-05
2.88546e-05
2.93536e-05
2.99044e-05
3.0511e-05
3.11784e-05
3.19121e-05
3.27178e-05
3.35393e-05
3.43573e-05
3.52178e-05
3.61672e-05
3.72146e-05
3.83663e-05
3.96126e-05
4.099e-05
4.25131e-05
4.41768e-05
4.59737e-05
4.78747e-05
4.98545e-05
5.18807e-05
5.38596e-05
5.57735e-05
5.75733e-05
5.92774e-05
6.08566e-05
6.23269e-05
6.36647e-05
6.48901e-05
6.59599e-05
6.69131e-05
6.77205e-05
6.83901e-05
6.88814e-05
6.91993e-05
6.92664e-05
6.90692e-05
6.85856e-05
6.7497e-05
6.53292e-05
6.14265e-05
5.31217e-05
2.63309e-05
2.64608e-05
2.66136e-05
2.67918e-05
2.69961e-05
2.72275e-05
2.74877e-05
2.77779e-05
2.80992e-05
2.84527e-05
2.884e-05
2.92625e-05
2.97222e-05
3.02212e-05
3.07622e-05
3.13376e-05
3.19253e-05
3.25582e-05
3.32422e-05
3.38955e-05
3.46083e-05
3.53946e-05
3.62665e-05
3.72361e-05
3.83155e-05
3.94763e-05
4.07485e-05
4.21343e-05
4.36266e-05
4.5212e-05
4.68382e-05
4.84666e-05
5.00746e-05
5.16433e-05
5.31509e-05
5.45743e-05
5.59011e-05
5.70913e-05
5.81612e-05
5.90805e-05
5.98446e-05
6.04256e-05
6.0795e-05
6.08066e-05
6.05223e-05
5.98038e-05
5.82344e-05
5.52974e-05
5.06249e-05
4.24287e-05
2.63113e-05
2.63967e-05
2.64993e-05
2.66207e-05
2.67624e-05
2.69252e-05
2.71096e-05
2.73163e-05
2.75456e-05
2.77979e-05
2.80738e-05
2.83738e-05
2.86986e-05
2.90489e-05
2.94124e-05
2.97872e-05
3.01861e-05
3.06118e-05
3.1068e-05
3.15601e-05
3.20939e-05
3.26775e-05
3.33224e-05
3.39292e-05
3.46176e-05
3.54074e-05
3.62994e-05
3.72937e-05
3.83865e-05
3.95803e-05
4.08487e-05
4.21464e-05
4.34465e-05
4.47264e-05
4.59638e-05
4.71347e-05
4.82203e-05
4.91986e-05
5.00573e-05
5.07596e-05
5.13028e-05
5.16411e-05
5.16998e-05
5.15093e-05
5.08722e-05
4.95526e-05
4.72199e-05
4.38319e-05
3.92143e-05
3.3618e-05
2.62952e-05
2.63458e-05
2.64101e-05
2.64891e-05
2.65838e-05
2.66944e-05
2.68214e-05
2.69649e-05
2.71251e-05
2.7302e-05
2.74958e-05
2.77068e-05
2.79284e-05
2.8159e-05
2.84032e-05
2.86615e-05
2.89349e-05
2.92251e-05
2.95345e-05
2.98664e-05
3.02249e-05
3.05921e-05
3.09914e-05
3.14414e-05
3.1956e-05
3.25504e-05
3.32282e-05
3.39549e-05
3.47655e-05
3.56524e-05
3.65955e-05
3.75608e-05
3.85186e-05
3.94492e-05
4.0327e-05
4.11245e-05
4.18203e-05
4.23941e-05
4.28289e-05
4.30871e-05
4.31426e-05
4.30398e-05
4.2673e-05
4.19192e-05
4.07293e-05
3.90367e-05
3.67394e-05
3.40894e-05
3.10867e-05
2.85776e-05
2.62822e-05
2.63053e-05
2.63408e-05
2.63871e-05
2.64444e-05
2.65129e-05
2.65932e-05
2.66856e-05
2.67879e-05
2.69003e-05
2.70234e-05
2.7157e-05
2.73009e-05
2.74547e-05
2.76175e-05
2.77889e-05
2.79693e-05
2.81595e-05
2.83555e-05
2.85551e-05
2.87688e-05
2.90011e-05
2.92594e-05
2.95541e-05
2.98969e-05
3.02998e-05
3.07716e-05
3.13114e-05
3.19057e-05
3.25448e-05
3.32109e-05
3.38644e-05
3.4492e-05
3.50706e-05
3.55802e-05
3.59937e-05
3.62897e-05
3.64473e-05
3.64705e-05
3.63792e-05
3.60559e-05
3.55114e-05
3.47676e-05
3.38343e-05
3.26405e-05
3.12238e-05
2.97527e-05
2.84714e-05
2.74665e-05
2.67964e-05
2.62758e-05
2.62812e-05
2.62917e-05
2.63077e-05
2.63296e-05
2.63577e-05
2.63923e-05
2.64332e-05
2.64807e-05
2.65351e-05
2.65963e-05
2.66642e-05
2.67382e-05
2.68176e-05
2.69002e-05
2.69867e-05
2.70767e-05
2.71698e-05
2.72668e-05
2.73717e-05
2.74865e-05
2.76141e-05
2.77582e-05
2.79234e-05
2.81134e-05
2.83308e-05
2.85757e-05
2.88439e-05
2.91284e-05
2.94197e-05
2.97069e-05
2.99735e-05
3.02017e-05
3.0376e-05
3.04828e-05
3.0511e-05
3.04533e-05
3.03079e-05
3.00728e-05
2.97603e-05
2.93756e-05
2.89437e-05
2.84807e-05
2.80179e-05
2.75807e-05
2.71929e-05
2.68674e-05
2.6629e-05
2.64702e-05
2.63528e-05
)
;

boundaryField
{
    AXIS
    {
        type            empty;
    }
    OUTLET
    {
        type            calculated;
        value           nonuniform List<scalar> 
25
(
9.48005e-05
9.47776e-05
9.47254e-05
9.46282e-05
9.44739e-05
9.42367e-05
9.39077e-05
9.34437e-05
9.2828e-05
9.20819e-05
9.11858e-05
9.00538e-05
8.85609e-05
8.65625e-05
8.39671e-05
8.05792e-05
7.61096e-05
7.02039e-05
6.25988e-05
5.31217e-05
4.24287e-05
3.3618e-05
2.85776e-05
2.67964e-05
2.63528e-05
)
;
    }
    COFLOW
    {
        type            calculated;
        value           uniform 2.62756e-05;
    }
    PILOT
    {
        type            calculated;
        value           uniform 0.000100126;
    }
    FUEL
    {
        type            calculated;
        value           uniform 2.61542e-05;
    }
    WALL
    {
        type            calculated;
        value           nonuniform List<scalar> 
50
(
2.62758e-05
2.62812e-05
2.62917e-05
2.63077e-05
2.63296e-05
2.63577e-05
2.63923e-05
2.64332e-05
2.64807e-05
2.65351e-05
2.65963e-05
2.66642e-05
2.67382e-05
2.68176e-05
2.69002e-05
2.69867e-05
2.70767e-05
2.71698e-05
2.72668e-05
2.73717e-05
2.74865e-05
2.76141e-05
2.77582e-05
2.79234e-05
2.81134e-05
2.83308e-05
2.85757e-05
2.88439e-05
2.91284e-05
2.94197e-05
2.97069e-05
2.99735e-05
3.02017e-05
3.0376e-05
3.04828e-05
3.0511e-05
3.04533e-05
3.03079e-05
3.00728e-05
2.97603e-05
2.93756e-05
2.89437e-05
2.84807e-05
2.80179e-05
2.75807e-05
2.71929e-05
2.68674e-05
2.6629e-05
2.64702e-05
2.63528e-05
)
;
    }
    front
    {
        type            wedge;
    }
    back
    {
        type            wedge;
    }
}


// ************************************************************************* //
