/*--------------------------------*- C++ -*----------------------------------*\
| =========                 |                                                 |
| \\      /  F ield         | OpenFOAM: The Open Source CFD Toolbox           |
|  \\    /   O peration     | Version:  2.4.x                                 |
|   \\  /    A nd           | Web:      www.OpenFOAM.org                      |
|    \\/     M anipulation  |                                                 |
\*---------------------------------------------------------------------------*/
FoamFile
{
    version     2.0;
    format      ascii;
    class       volScalarField;
    location    "0.1";
    object      varZ;
}
// * * * * * * * * * * * * * * * * * * * * * * * * * * * * * * * * * * * * * //

dimensions      [0 0 0 0 0 0 0];

internalField   nonuniform List<scalar> 
1250
(
0.00111889
0.0046049
0.00989869
0.0160595
0.0225959
0.0289598
0.0347348
0.0395757
0.0433769
0.0462128
0.0481325
0.0493062
0.0497388
0.0496625
0.0492526
0.0483499
0.0471657
0.0457979
0.0442991
0.0427145
0.0410875
0.0394471
0.0378216
0.0362312
0.0346874
0.0332025
0.0317813
0.0304292
0.0291474
0.0279359
0.0267944
0.02572
0.0247104
0.023762
0.0228704
0.0220368
0.0212559
0.0205283
0.0198621
0.0192303
0.0186826
0.0181684
0.0176862
0.0173714
0.0169548
0.0166422
0.0166766
0.0171465
0.0188563
0.0216024
0.00125896
0.00517028
0.0110335
0.0177279
0.0246817
0.0312398
0.0370256
0.0417228
0.0453214
0.0479412
0.0496395
0.0506016
0.0508498
0.05066
0.0500745
0.0490526
0.047789
0.046352
0.0447967
0.0431667
0.0415026
0.0398325
0.0381837
0.0365744
0.0350143
0.0335161
0.0320836
0.0307211
0.0294299
0.0282093
0.0270591
0.0259761
0.024958
0.0240008
0.0231007
0.0222589
0.0214701
0.0207353
0.0200621
0.0194245
0.0188711
0.0183515
0.0178662
0.0175459
0.0171249
0.0168103
0.0168385
0.0173172
0.0190478
0.0217225
0.00167436
0.00681941
0.0142953
0.0223888
0.0302544
0.0370566
0.0426507
0.0468621
0.0498939
0.0519348
0.0530625
0.0535176
0.0533768
0.0528451
0.0518769
0.0506196
0.0491648
0.0475716
0.0458894
0.0441575
0.0424114
0.0406752
0.0389738
0.037322
0.0357259
0.0341971
0.0327387
0.0313529
0.0300401
0.0287992
0.0276293
0.026527
0.0254896
0.0245133
0.0235945
0.0227345
0.0219289
0.0211784
0.0204902
0.0198403
0.0192746
0.0187436
0.0182519
0.0179199
0.0174894
0.0171724
0.0171966
0.0176821
0.019461
0.0219866
0.00284846
0.0111466
0.0223204
0.0327854
0.0414545
0.0478544
0.0525062
0.055509
0.0573237
0.058269
0.0583723
0.0580559
0.0572436
0.0560654
0.0546202
0.0529865
0.0512341
0.0494015
0.0475266
0.0456402
0.0437696
0.041933
0.0401509
0.0384332
0.0367827
0.0352049
0.033706
0.0322834
0.0309367
0.029664
0.0284635
0.0273311
0.0262639
0.0252585
0.0243117
0.0234249
0.0225943
0.021821
0.0211113
0.0204436
0.0198603
0.0193132
0.0188122
0.0184634
0.0180197
0.0177011
0.0177225
0.0182075
0.0200735
0.0223805
0.00774725
0.0243747
0.0422162
0.0537318
0.0609426
0.0649729
0.0671023
0.0677321
0.0675039
0.0667803
0.0654977
0.0639632
0.0621922
0.0602442
0.0581776
0.0560551
0.0539147
0.051771
0.0496463
0.0475595
0.0455266
0.0435588
0.0416702
0.0398647
0.0381414
0.0364999
0.0349431
0.0334704
0.0320774
0.030761
0.0295188
0.0283457
0.0272385
0.0261948
0.0252115
0.0242902
0.0234281
0.022626
0.0218896
0.0212
0.0205951
0.0200285
0.0195161
0.0191467
0.0186874
0.0183693
0.0183891
0.0188487
0.0208647
0.0228931
0.0492073
0.0687602
0.0811294
0.0861231
0.087689
0.0869356
0.0849965
0.0823678
0.079498
0.0766214
0.073682
0.0707717
0.0678957
0.0650676
0.0622993
0.0596258
0.0570438
0.0545433
0.0521318
0.0498137
0.0475921
0.0454711
0.0434567
0.0415465
0.039735
0.0380175
0.0363909
0.034854
0.0334035
0.0320332
0.0307392
0.0295157
0.0283598
0.0272697
0.0262436
0.0252822
0.0243839
0.0235493
0.022783
0.0220688
0.0214398
0.0208521
0.0203267
0.0199343
0.019459
0.0191444
0.0191638
0.0196179
0.0217548
0.023498
0.0702604
0.110624
0.119237
0.118053
0.114227
0.108427
0.102501
0.0967626
0.091378
0.0864665
0.0819048
0.0776738
0.0737342
0.0700492
0.0665969
0.0633847
0.0603625
0.0575016
0.0547991
0.052244
0.0498266
0.047546
0.0453984
0.0433754
0.0414677
0.039666
0.0379638
0.0363555
0.0348388
0.0334073
0.0320543
0.0307736
0.0295634
0.0284219
0.0273493
0.0263454
0.0254089
0.0245404
0.0237435
0.0230039
0.0223503
0.0217415
0.0212026
0.0207863
0.0202965
0.0199888
0.0200092
0.020471
0.0227041
0.0241663
0.0306391
0.114804
0.135541
0.135821
0.131138
0.123424
0.115425
0.10786
0.100881
0.0945983
0.0888788
0.0836776
0.078929
0.0745755
0.0705855
0.0669257
0.0635299
0.0603583
0.0574031
0.0546374
0.0520438
0.0496189
0.0473469
0.0452161
0.0432147
0.0413293
0.039552
0.0378743
0.0362908
0.0347957
0.0333816
0.032042
0.0307765
0.0295834
0.0284644
0.0274192
0.0264462
0.0255454
0.0247195
0.0239563
0.0232796
0.0226515
0.0220994
0.0216603
0.0211593
0.0208617
0.0208846
0.0213629
0.0236657
0.0248622
0.0171102
0.0859546
0.122451
0.132752
0.132124
0.127535
0.120424
0.11314
0.106063
0.0994667
0.0933644
0.0877837
0.0826687
0.0779865
0.0737207
0.0697943
0.0661597
0.0627859
0.0596588
0.0567448
0.0540246
0.0514936
0.0491246
0.0469065
0.0448279
0.0428716
0.04103
0.0392931
0.0376532
0.0361006
0.0346305
0.0332368
0.0319216
0.0306825
0.0295225
0.028441
0.0274369
0.026509
0.0256589
0.0248758
0.0241797
0.0235355
0.0229719
0.0225128
0.0220051
0.0217204
0.0217479
0.0222489
0.0245907
0.0255427
0.0121099
0.0470848
0.0848695
0.107788
0.117358
0.11872
0.116048
0.1112
0.10558
0.0998631
0.0943491
0.0891367
0.0842343
0.079663
0.0754552
0.0715209
0.067849
0.0644348
0.0612578
0.0582964
0.0555302
0.0529533
0.0505358
0.0482692
0.0461464
0.0441468
0.0422647
0.040489
0.038812
0.0372195
0.0357067
0.0342727
0.0329208
0.0316475
0.030458
0.0293502
0.0283237
0.0273769
0.0265099
0.0257133
0.0250033
0.0243476
0.0237756
0.023301
0.0227922
0.0225228
0.0225575
0.0230858
0.0254305
0.0261564
0.00306613
0.0179036
0.0418731
0.068467
0.0875711
0.0976302
0.101434
0.101129
0.0989903
0.0953725
0.0913558
0.0871976
0.0830542
0.0790434
0.0752457
0.0716134
0.068179
0.0649482
0.0618984
0.0590297
0.0563305
0.0537936
0.0514053
0.0491536
0.0470363
0.0450366
0.043151
0.0413685
0.0396816
0.0380754
0.0365436
0.0350915
0.0337228
0.0324333
0.031231
0.0301113
0.0290746
0.0281197
0.0272453
0.0264435
0.0257264
0.0250651
0.0244889
0.0240043
0.0235009
0.0232498
0.0232955
0.0238558
0.0261623
0.0266377
0.00138001
0.00698989
0.0171644
0.0322258
0.0502925
0.0659443
0.0762913
0.0818815
0.0841476
0.0840649
0.0829059
0.0807224
0.0781061
0.0752989
0.0724167
0.0695043
0.0666359
0.0638545
0.0611544
0.0585558
0.0560745
0.0537071
0.0514597
0.0493233
0.0472901
0.0453625
0.043533
0.0417932
0.0401386
0.0385575
0.0370459
0.0356109
0.0342562
0.0329778
0.0317877
0.0306774
0.0296492
0.0287015
0.0278327
0.0270372
0.0263226
0.0256637
0.0250901
0.0246027
0.0241132
0.0238866
0.0239495
0.0245505
0.0267671
0.0269621
0.000779498
0.00337846
0.00758319
0.0136877
0.0224128
0.0334822
0.0449601
0.0545578
0.0612929
0.0654315
0.0676076
0.0682857
0.0679951
0.0670852
0.065679
0.0639763
0.0621491
0.0602255
0.0582238
0.0561896
0.0541775
0.0521957
0.0502607
0.0483745
0.0465413
0.0447855
0.0430973
0.041475
0.0399166
0.0384228
0.0369915
0.0356276
0.0343366
0.0331145
0.0319764
0.0309092
0.0299193
0.0290041
0.0281616
0.0273902
0.0266925
0.0260485
0.0254891
0.02501
0.0245477
0.0243573
0.0244476
0.0250866
0.0271688
0.0270494
0.000486101
0.00190563
0.00391162
0.0065491
0.0100382
0.014691
0.0206793
0.0277621
0.0349783
0.0414114
0.0464618
0.0500747
0.0524044
0.053749
0.0543251
0.0542738
0.0539215
0.0532024
0.0522256
0.05106
0.0498069
0.0484755
0.0470843
0.0456581
0.0442153
0.0427909
0.0413849
0.0400059
0.0386548
0.0373488
0.0360907
0.034879
0.0337186
0.0326155
0.0315807
0.0306015
0.0296903
0.0288423
0.0280553
0.0273332
0.0266725
0.0260626
0.0255349
0.0250809
0.0246675
0.0245295
0.0246603
0.0253396
0.0272246
0.0267728
0.000318064
0.00117179
0.0022642
0.0035933
0.00518971
0.00713134
0.00953073
0.0125378
0.0161965
0.0204125
0.0249183
0.0292883
0.0331228
0.0362699
0.0387064
0.0404464
0.041648
0.0423945
0.0427166
0.0426827
0.0424696
0.0420146
0.0413818
0.0406168
0.0397604
0.0388521
0.0378916
0.0369055
0.0359024
0.034907
0.0339343
0.0329798
0.0320496
0.0311562
0.0302987
0.0294795
0.0287094
0.0279782
0.0272912
0.0266564
0.0260643
0.0255185
0.0250475
0.024644
0.0243134
0.0242429
0.0244312
0.0251808
0.0267616
0.0259577
0.000213619
0.000752629
0.00140385
0.00215742
0.0030094
0.00396857
0.0050577
0.00631912
0.00780192
0.00956124
0.0116403
0.0140254
0.0166714
0.0194259
0.022133
0.0246349
0.0268417
0.0287209
0.0302228
0.0313437
0.0321641
0.032703
0.0329837
0.033022
0.0329299
0.0326961
0.032325
0.0318785
0.0313593
0.030803
0.0302301
0.0296365
0.0290319
0.0284313
0.0278298
0.0272442
0.0266754
0.0261207
0.0255911
0.0250895
0.0246112
0.0241734
0.023801
0.0234927
0.0232925
0.0233075
0.0235898
0.0244373
0.0255543
0.0244284
0.000144365
0.000494155
0.00090306
0.00136324
0.00186702
0.00240993
0.0029928
0.00362211
0.00430939
0.00507156
0.00593132
0.00691119
0.0080419
0.00932662
0.0107633
0.0123366
0.0140039
0.015717
0.0173972
0.0189643
0.0203784
0.0216112
0.0226343
0.0234365
0.0240516
0.0245012
0.0247847
0.0249443
0.0249809
0.0249489
0.0248555
0.0246928
0.0244875
0.0242491
0.023977
0.0236869
0.0233771
0.0230621
0.0227471
0.0224341
0.0221303
0.0218565
0.0216371
0.0214817
0.0214578
0.0215682
0.0219957
0.0228855
0.0235114
0.0220398
9.71405e-05
0.000326744
0.000590413
0.000883237
0.00119956
0.00153428
0.00188373
0.00224642
0.0026232
0.00301691
0.00343347
0.00387939
0.00436462
0.00489847
0.00549453
0.00616061
0.00690385
0.00773011
0.008639
0.00961348
0.0106378
0.0116904
0.0127321
0.0137261
0.0146462
0.0154813
0.0162085
0.0168317
0.0173441
0.0177659
0.0181069
0.0183677
0.0185621
0.0186983
0.0187804
0.0188187
0.018814
0.0187877
0.0187354
0.0186685
0.0186022
0.0185527
0.0185527
0.018608
0.0187676
0.0190523
0.019645
0.0204097
0.0205719
0.0186907
6.45221e-05
0.000214967
0.000386448
0.000576228
0.000780868
0.000996719
0.00122038
0.00144904
0.00168083
0.00191494
0.00215201
0.0023929
0.0026398
0.00289571
0.00316549
0.00345201
0.00375973
0.00409493
0.00446439
0.00487308
0.00532045
0.00581001
0.00634369
0.00691587
0.00751724
0.00814431
0.00877963
0.00940968
0.0100184
0.0105971
0.0111402
0.0116404
0.0120972
0.0125098
0.0128784
0.0132045
0.0134918
0.0137446
0.013971
0.0141737
0.0143705
0.0145726
0.0148105
0.0151036
0.0154647
0.0159071
0.0165408
0.0170355
0.0168203
0.0143975
4.18648e-05
0.000139004
0.00024979
0.000372882
0.000506389
0.000648019
0.000795337
0.000945934
0.00109766
0.00124888
0.00139846
0.00154571
0.0016907
0.00183389
0.00197621
0.00211867
0.00226259
0.00241041
0.0025648
0.00272829
0.00290195
0.00308888
0.00329369
0.00352006
0.00377262
0.00405104
0.00435503
0.00469273
0.00506477
0.00546681
0.00589177
0.00633498
0.00678973
0.00724787
0.00770284
0.00814774
0.00858079
0.00899776
0.00940169
0.00979044
0.0101772
0.0105679
0.0109801
0.011418
0.0118872
0.0123728
0.012861
0.0129748
0.0123905
0.00948991
2.60934e-05
8.68927e-05
0.00015686
0.000235488
0.000321789
0.000414372
0.000511586
0.000611683
0.000712887
0.0008136
0.000912492
0.00100842
0.00110065
0.00118875
0.00127256
0.00135227
0.00142831
0.00150125
0.00157195
0.00164132
0.00171017
0.00178004
0.00185317
0.00193224
0.00202154
0.00212331
0.00224194
0.00238434
0.00255473
0.00276174
0.00300808
0.00328982
0.003604
0.00394573
0.00431002
0.00469086
0.0050844
0.00548552
0.00589298
0.00630161
0.00671758
0.00713874
0.00756668
0.00798898
0.00839618
0.00873741
0.00887485
0.00864173
0.00763261
0.00474495
1.51099e-05
5.10391e-05
9.33128e-05
0.000141818
0.00019601
0.00025501
0.000317711
0.000382871
0.000449218
0.000515482
0.000580551
0.000643445
0.000703249
0.000759312
0.000811131
0.000858415
0.000901088
0.000939177
0.000972868
0.00100259
0.00102873
0.00105212
0.00107413
0.00109679
0.00112314
0.00115678
0.00120187
0.00126225
0.00134209
0.00144831
0.00158631
0.00175468
0.00195074
0.00217221
0.00241664
0.00268074
0.0029616
0.00325547
0.00356005
0.00386981
0.00418384
0.00449282
0.00478648
0.00504686
0.00523788
0.00527677
0.00511604
0.00453755
0.00332927
0.00169806
7.43869e-06
2.64256e-05
4.99607e-05
7.79102e-05
0.000109859
0.00014519
0.000183196
0.00022309
0.000264031
0.000305186
0.000345743
0.000385001
0.000422236
0.000456793
0.00048813
0.000515859
0.0005397
0.000559423
0.000574926
0.000586214
0.000593518
0.00059761
0.000599585
0.000601374
0.00060522
0.000613972
0.000631879
0.00066141
0.000704791
0.000765713
0.000847711
0.000950102
0.00107059
0.0012076
0.00135943
0.00152383
0.00169796
0.00187787
0.00205936
0.00223614
0.0024026
0.00254719
0.00265252
0.00269492
0.00266884
0.00251818
0.00215285
0.00162235
0.000995722
0.000468648
2.20227e-06
9.69622e-06
2.0742e-05
3.43871e-05
5.02642e-05
6.8039e-05
8.74664e-05
0.000108167
0.000129696
0.000151616
0.000173465
0.000194782
0.000215118
0.000234043
0.000251082
0.00026575
0.000277635
0.000286467
0.000292051
0.000294503
0.000294438
0.000292902
0.000289568
0.000286381
0.000285178
0.000286683
0.000293934
0.000311212
0.000337507
0.000374145
0.000422736
0.000482211
0.000550906
0.000627718
0.000711097
0.000798717
0.00088774
0.00097452
0.00105384
0.00111877
0.00116151
0.00117468
0.00115945
0.00109305
0.00096707
0.000797554
0.000586791
0.000383434
0.000210996
9.29078e-05
7.71747e-08
1.44444e-06
3.56696e-06
6.11059e-06
9.21799e-06
1.28321e-05
1.69706e-05
2.15869e-05
2.65396e-05
3.17105e-05
3.69688e-05
4.21735e-05
4.7184e-05
5.18901e-05
5.61495e-05
5.97315e-05
6.23923e-05
6.40263e-05
6.45949e-05
6.43359e-05
6.35697e-05
6.24183e-05
6.11247e-05
6.00967e-05
5.97921e-05
6.06766e-05
6.32692e-05
6.7914e-05
7.46659e-05
8.3609e-05
9.48466e-05
0.000108043
0.000122674
0.000138271
0.000154239
0.000169789
0.000183994
0.000195835
0.000203978
0.000207167
0.000204319
0.000194697
0.000177539
0.000153812
0.000125403
9.49227e-05
6.45638e-05
3.99162e-05
2.1476e-05
1.04187e-05
)
;

boundaryField
{
    AXIS
    {
        type            empty;
    }
    OUTLET
    {
        type            zeroGradient;
    }
    COFLOW
    {
        type            fixedValue;
        value           uniform 0;
    }
    PILOT
    {
        type            fixedValue;
        value           uniform 0;
    }
    FUEL
    {
        type            fixedValue;
        value           uniform 0;
    }
    WALL
    {
        type            zeroGradient;
    }
    front
    {
        type            wedge;
    }
    back
    {
        type            wedge;
    }
}


// ************************************************************************* //
