/*--------------------------------*- C++ -*----------------------------------*\
| =========                 |                                                 |
| \\      /  F ield         | OpenFOAM: The Open Source CFD Toolbox           |
|  \\    /   O peration     | Version:  2.4.x                                 |
|   \\  /    A nd           | Web:      www.OpenFOAM.org                      |
|    \\/     M anipulation  |                                                 |
\*---------------------------------------------------------------------------*/
FoamFile
{
    version     2.0;
    format      ascii;
    class       volScalarField;
    location    "0.1";
    object      Z;
}
// * * * * * * * * * * * * * * * * * * * * * * * * * * * * * * * * * * * * * //

dimensions      [0 0 0 0 0 0 0];

internalField   nonuniform List<scalar> 
1250
(
0.997379
0.989514
0.978925
0.966907
0.953702
0.939737
0.925397
0.911178
0.897322
0.883877
0.870812
0.858014
0.8456
0.833554
0.821888
0.8106
0.799559
0.78871
0.778065
0.767623
0.757365
0.747273
0.737323
0.727418
0.71757
0.707784
0.698034
0.688314
0.678612
0.668922
0.659226
0.649515
0.639782
0.630014
0.620218
0.610368
0.600486
0.590531
0.580471
0.570426
0.560046
0.549793
0.539274
0.528073
0.517761
0.505722
0.493322
0.482773
0.461671
0.398052
0.996974
0.988106
0.976578
0.963644
0.949572
0.934981
0.920236
0.905858
0.891959
0.878537
0.865544
0.852872
0.840607
0.828724
0.817225
0.806087
0.79519
0.784481
0.773974
0.763667
0.753535
0.743561
0.733719
0.723912
0.714158
0.704462
0.6948
0.685165
0.675546
0.665937
0.656319
0.646686
0.637029
0.627337
0.617617
0.607843
0.598034
0.58815
0.578162
0.56818
0.557867
0.547678
0.537207
0.526076
0.515816
0.503814
0.491498
0.48096
0.459862
0.396321
0.995715
0.984015
0.96988
0.954494
0.938385
0.922588
0.907232
0.892747
0.878942
0.865799
0.853165
0.840916
0.829091
0.817656
0.806588
0.795863
0.785335
0.774978
0.764808
0.754822
0.744989
0.735293
0.725705
0.716132
0.706604
0.697116
0.687658
0.67822
0.668791
0.659367
0.649929
0.640471
0.630987
0.621469
0.611919
0.602313
0.592667
0.582941
0.57311
0.563269
0.553102
0.54305
0.532685
0.52171
0.511562
0.499637
0.487502
0.476985
0.455873
0.392481
0.991827
0.973498
0.95346
0.93369
0.915072
0.898471
0.883183
0.869328
0.85645
0.844327
0.832687
0.821415
0.810525
0.799972
0.789742
0.779779
0.769921
0.760187
0.750599
0.741154
0.73182
0.722585
0.713415
0.704229
0.69507
0.685935
0.676805
0.667683
0.658558
0.649428
0.640274
0.631094
0.621881
0.612633
0.603347
0.594
0.584603
0.575118
0.565523
0.555895
0.545948
0.536102
0.525897
0.515153
0.505172
0.493358
0.481492
0.471001
0.44985
0.386685
0.973984
0.940184
0.911347
0.889015
0.87102
0.856514
0.843885
0.832653
0.822331
0.812475
0.802834
0.793387
0.784154
0.775111
0.766244
0.757478
0.748666
0.739894
0.731184
0.722544
0.713947
0.705386
0.696827
0.688207
0.679575
0.670952
0.662304
0.653632
0.644939
0.636223
0.627467
0.618675
0.609841
0.600962
0.592035
0.58304
0.573977
0.564815
0.555533
0.546188
0.536532
0.526954
0.516964
0.506521
0.49675
0.485083
0.473566
0.463109
0.441896
0.379085
0.798778
0.825881
0.817368
0.807805
0.799392
0.792829
0.786923
0.781108
0.775304
0.769279
0.762955
0.75637
0.749645
0.742804
0.735872
0.728766
0.721424
0.713991
0.706493
0.69895
0.691354
0.683706
0.675973
0.668115
0.660185
0.652229
0.644234
0.636173
0.628051
0.619879
0.611645
0.603359
0.595018
0.586612
0.57814
0.569587
0.560944
0.552183
0.543288
0.534294
0.524994
0.51574
0.506018
0.49594
0.486415
0.474929
0.463836
0.453417
0.432127
0.369851
0.502844
0.641579
0.677084
0.693769
0.703119
0.709253
0.713246
0.715352
0.715848
0.715147
0.713334
0.710554
0.707123
0.703162
0.698755
0.693751
0.688297
0.682586
0.676629
0.670481
0.66416
0.657666
0.650978
0.644083
0.637041
0.629917
0.622724
0.615447
0.608054
0.600564
0.592984
0.585328
0.577594
0.56977
0.561847
0.553822
0.54568
0.537396
0.528955
0.520375
0.511492
0.502611
0.493211
0.483551
0.474299
0.463034
0.452431
0.442053
0.420684
0.359122
0.320055
0.452105
0.5166
0.56016
0.590224
0.611122
0.626819
0.638158
0.646219
0.651549
0.654974
0.656758
0.657192
0.656719
0.655358
0.652858
0.649676
0.646035
0.641913
0.637434
0.632641
0.627518
0.622082
0.616342
0.610366
0.604247
0.598007
0.591654
0.585153
0.578492
0.571699
0.564797
0.557783
0.550646
0.543367
0.535948
0.52838
0.520642
0.512716
0.504609
0.496198
0.487731
0.478707
0.469508
0.460548
0.449556
0.439499
0.429167
0.407721
0.347066
0.239631
0.280378
0.353297
0.418716
0.468167
0.504362
0.531979
0.552896
0.568851
0.580707
0.58981
0.596475
0.601215
0.604438
0.60629
0.606669
0.606158
0.60488
0.602809
0.600239
0.597187
0.593614
0.589621
0.585213
0.580471
0.575521
0.570385
0.565084
0.559602
0.553922
0.548043
0.542015
0.535827
0.529473
0.522926
0.51619
0.509257
0.502125
0.494768
0.487186
0.479291
0.471277
0.462678
0.453973
0.445321
0.434667
0.425195
0.414914
0.393409
0.33392
0.13424
0.137503
0.201816
0.280261
0.344418
0.394049
0.432538
0.462657
0.486173
0.50453
0.519361
0.530949
0.540085
0.547168
0.552361
0.555915
0.55825
0.559557
0.559762
0.559336
0.55822
0.556345
0.553991
0.551099
0.547743
0.544111
0.540212
0.536082
0.531718
0.527138
0.522299
0.517255
0.511985
0.506498
0.500758
0.494775
0.488535
0.482054
0.47531
0.468299
0.460958
0.45343
0.445305
0.437116
0.428788
0.418549
0.409682
0.399456
0.377945
0.319932
0.017698
0.0471304
0.0918932
0.157673
0.22488
0.282564
0.329589
0.36762
0.398106
0.422749
0.442958
0.45941
0.472958
0.48396
0.492593
0.499572
0.505106
0.509261
0.512079
0.513939
0.514954
0.515015
0.514559
0.5134
0.511588
0.509446
0.506936
0.504111
0.500986
0.497619
0.493965
0.490023
0.485776
0.481253
0.476405
0.471255
0.465786
0.460015
0.453936
0.447549
0.44081
0.433815
0.426223
0.418575
0.410606
0.400885
0.392639
0.38247
0.361046
0.304886
0.0049995
0.0177902
0.0371165
0.0706244
0.11909
0.173144
0.223112
0.266352
0.302642
0.333036
0.358281
0.379548
0.397441
0.412442
0.42477
0.435327
0.444181
0.451379
0.457086
0.461592
0.465042
0.467421
0.469024
0.469851
0.469862
0.469492
0.468592
0.467274
0.46558
0.463618
0.461335
0.458666
0.455598
0.45219
0.448363
0.444169
0.439588
0.434637
0.429318
0.423642
0.417586
0.411203
0.404237
0.397188
0.389652
0.3806
0.373014
0.362877
0.341684
0.287859
0.00218832
0.00824707
0.0166958
0.0299642
0.0515769
0.0836143
0.123153
0.164184
0.202237
0.236191
0.265667
0.291284
0.313258
0.332184
0.348368
0.362393
0.374481
0.384787
0.393526
0.400909
0.407036
0.411962
0.415934
0.419006
0.421188
0.422738
0.423711
0.42419
0.424169
0.423869
0.423159
0.421945
0.420241
0.418131
0.415479
0.412392
0.408842
0.404851
0.40042
0.395574
0.390306
0.384645
0.378419
0.372047
0.36507
0.356884
0.35001
0.339825
0.31907
0.268119
0.00121105
0.00451968
0.00883108
0.0147408
0.0233295
0.0361815
0.0549357
0.0801947
0.109899
0.141
0.170832
0.198376
0.223042
0.245025
0.264495
0.281667
0.296877
0.310305
0.322042
0.332315
0.341211
0.348816
0.355337
0.360828
0.365343
0.369064
0.372142
0.374641
0.376586
0.378078
0.379098
0.379506
0.379337
0.378708
0.377353
0.375525
0.373149
0.370248
0.366844
0.362958
0.358609
0.353797
0.348443
0.342839
0.336612
0.329483
0.32331
0.312964
0.293047
0.245447
0.000762991
0.00276551
0.00526231
0.00839832
0.0124561
0.0178873
0.0253288
0.0356622
0.0496493
0.0675834
0.0887945
0.111793
0.134827
0.156999
0.177762
0.19683
0.214242
0.230144
0.244444
0.257281
0.268765
0.278971
0.288005
0.295948
0.30286
0.308916
0.314255
0.318913
0.322945
0.326369
0.329195
0.331365
0.332841
0.333712
0.333753
0.333365
0.332291
0.330589
0.328359
0.325566
0.322288
0.318483
0.314158
0.309457
0.304242
0.298276
0.292673
0.282308
0.263673
0.219752
0.000515242
0.00181189
0.00338312
0.00526252
0.00752712
0.010303
0.0137714
0.0181944
0.0239065
0.031315
0.0408351
0.0526987
0.0668411
0.0827476
0.0996714
0.116863
0.133775
0.150112
0.165528
0.179851
0.193085
0.205253
0.216346
0.226435
0.23554
0.243807
0.251282
0.258026
0.264071
0.269393
0.274022
0.277929
0.28106
0.28347
0.285077
0.286069
0.286277
0.285975
0.285079
0.283503
0.28147
0.278844
0.275736
0.272158
0.268165
0.263381
0.258304
0.248362
0.231272
0.191029
0.000359757
0.0012358
0.0022761
0.00348876
0.00489447
0.00652933
0.00844832
0.0107276
0.0134672
0.0167965
0.0208797
0.0259017
0.0320805
0.0395559
0.0483892
0.0585742
0.069954
0.0822738
0.0951257
0.108096
0.120891
0.133326
0.145198
0.156418
0.166908
0.176709
0.18578
0.194184
0.201892
0.208857
0.215069
0.220499
0.225129
0.228992
0.232076
0.234472
0.236138
0.237214
0.237639
0.237484
0.236906
0.235634
0.233929
0.231721
0.229035
0.225413
0.221025
0.212052
0.196443
0.15947
0.000254344
0.000859929
0.00156933
0.00238529
0.00331374
0.00436538
0.00555675
0.00691142
0.00846131
0.0102469
0.0123211
0.0147424
0.017586
0.0209328
0.0248784
0.0295057
0.0349033
0.041138
0.0482395
0.0561546
0.0648155
0.0741106
0.0838083
0.0937043
0.103563
0.113281
0.122687
0.131699
0.140195
0.14808
0.15527
0.161729
0.167475
0.172516
0.176873
0.180579
0.183655
0.186142
0.188056
0.189398
0.190276
0.190497
0.190322
0.189629
0.188242
0.185809
0.182164
0.174377
0.159764
0.125634
0.000179439
0.000600989
0.00109123
0.00165206
0.00228583
0.00299608
0.00378807
0.00466903
0.00564904
0.00674132
0.00796359
0.00933496
0.0108797
0.0126257
0.0146086
0.0168596
0.0194203
0.0223428
0.0256847
0.0294958
0.033814
0.0386923
0.0441572
0.0502003
0.0567414
0.0637549
0.0710953
0.0786059
0.0861184
0.0934433
0.100428
0.106989
0.113104
0.11875
0.123928
0.128616
0.132836
0.136553
0.139802
0.142523
0.144771
0.146448
0.147642
0.148041
0.147755
0.146422
0.143282
0.136071
0.121945
0.0907647
0.000124611
0.00041578
0.000754164
0.00114173
0.00158019
0.00207112
0.00261637
0.00321806
0.00387899
0.00460331
0.00539619
0.00626394
0.00721513
0.00825957
0.00940903
0.0106765
0.0120771
0.0136322
0.0153668
0.0173082
0.0194805
0.0219222
0.0246802
0.027797
0.0312987
0.0352021
0.039483
0.044151
0.0491747
0.0544324
0.0597711
0.0651213
0.0704264
0.0756225
0.0806569
0.0854603
0.0900025
0.0942086
0.0980721
0.101485
0.104466
0.106917
0.108792
0.109785
0.109837
0.108841
0.105616
0.0980387
0.0842859
0.0571809
8.36318e-05
0.000279766
0.000509463
0.000774911
0.00107764
0.00141863
0.00179849
0.00221776
0.00267689
0.00317662
0.00371826
0.00430331
0.00493427
0.00561435
0.00634761
0.00713992
0.00799849
0.00893214
0.00995268
0.0110741
0.0123111
0.0136856
0.0152253
0.0169611
0.0189278
0.0211469
0.0236228
0.0263847
0.0294461
0.0328062
0.0363886
0.0401263
0.0439839
0.0479092
0.0518467
0.0557263
0.059493
0.0630702
0.0664199
0.0694147
0.0720463
0.0741768
0.0756857
0.0763
0.0760491
0.0744309
0.0701174
0.0618443
0.0490452
0.0285258
5.24567e-05
0.000177995
0.000328279
0.000505446
0.00071073
0.000944692
0.00120744
0.00149881
0.00181855
0.00216624
0.00254198
0.00294596
0.00337822
0.00383961
0.00433142
0.00485577
0.00541607
0.00601686
0.00666445
0.00736761
0.00813616
0.00898426
0.00993165
0.0110031
0.0122259
0.0136279
0.0152184
0.0170094
0.0190092
0.0212313
0.0236473
0.0261961
0.0288364
0.0315262
0.0342188
0.0368583
0.0393927
0.0417611
0.0439161
0.0457494
0.0472351
0.0482391
0.0485575
0.0482741
0.0470406
0.0441097
0.0388322
0.031226
0.0213016
0.0106224
2.82006e-05
0.000100751
0.000192538
0.000304865
0.000438323
0.000592981
0.000768784
0.000965455
0.0011825
0.00141947
0.00167596
0.00195188
0.00224684
0.00256054
0.00289295
0.00324478
0.00361764
0.00401388
0.00443723
0.0048924
0.00538549
0.00592748
0.00653361
0.0072247
0.00802417
0.00895789
0.010036
0.011262
0.012633
0.0141471
0.0157822
0.0174906
0.019226
0.0209456
0.0226044
0.0241535
0.0255439
0.0267247
0.0276501
0.0282323
0.028407
0.0282531
0.0275505
0.0260522
0.0237578
0.0205155
0.0161959
0.0113969
0.00669692
0.00312064
9.33092e-06
4.14648e-05
9.05777e-05
0.000154046
0.000231756
0.000323793
0.000430669
0.000552257
0.000688307
0.000838719
0.00100327
0.0011817
0.00137371
0.00157873
0.00179563
0.00202373
0.00226346
0.00251604
0.00278392
0.00307128
0.00338226
0.00372372
0.00410742
0.00454857
0.00506467
0.00567551
0.00638884
0.00720468
0.00811142
0.0090968
0.010138
0.011194
0.0122221
0.013183
0.0140348
0.0147347
0.0152398
0.0155078
0.0155409
0.0153711
0.0147872
0.0138104
0.0124828
0.0108344
0.00890536
0.00683464
0.00473748
0.00295626
0.00158791
0.000689968
3.77236e-07
7.57052e-06
2.14511e-05
4.25117e-05
7.11811e-05
0.000107815
0.000152864
0.000206849
0.000270155
0.000342994
0.000425416
0.000517272
0.000618114
0.00072691
0.000840804
0.000960853
0.00108687
0.00121847
0.00135634
0.00150404
0.0016664
0.00184747
0.00205289
0.00228898
0.0025615
0.00287439
0.00322775
0.00361597
0.00402927
0.00445391
0.00487391
0.00526479
0.00559941
0.00585407
0.0060077
0.00604324
0.00595001
0.00572629
0.00537106
0.004905
0.00433833
0.00370375
0.00303369
0.00237571
0.00176464
0.00123089
0.000789407
0.000469361
0.000258308
0.000101346
)
;

boundaryField
{
    AXIS
    {
        type            empty;
    }
    OUTLET
    {
        type            inletOutlet;
        inletValue      uniform 0;
        value           nonuniform List<scalar> 
25
(
0.398052
0.396321
0.392481
0.386685
0.379085
0.369851
0.359122
0.347066
0.33392
0.319932
0.304886
0.287859
0.268119
0.245447
0.219752
0.191029
0.15947
0.125634
0.0907647
0.0571809
0.0285258
0.0106224
0.00312064
0.000689968
0.000101346
)
;
    }
    COFLOW
    {
        type            fixedValue;
        value           uniform 0;
    }
    PILOT
    {
        type            fixedValue;
        value           uniform 0.271;
    }
    FUEL
    {
        type            fixedValue;
        value           uniform 1;
    }
    WALL
    {
        type            zeroGradient;
    }
    front
    {
        type            wedge;
    }
    back
    {
        type            wedge;
    }
}


// ************************************************************************* //
