/*--------------------------------*- C++ -*----------------------------------*\
| =========                 |                                                 |
| \\      /  F ield         | OpenFOAM: The Open Source CFD Toolbox           |
|  \\    /   O peration     | Version:  2.4.x                                 |
|   \\  /    A nd           | Web:      www.OpenFOAM.org                      |
|    \\/     M anipulation  |                                                 |
\*---------------------------------------------------------------------------*/
FoamFile
{
    version     2.0;
    format      ascii;
    class       volScalarField;
    location    "0.1";
    object      Zeta;
}
// * * * * * * * * * * * * * * * * * * * * * * * * * * * * * * * * * * * * * //

dimensions      [0 0 0 0 0 0 0];

internalField   nonuniform List<scalar> 
1250
(
0.654229
0.666184
0.692676
0.708444
0.715364
0.715104
0.709317
0.699282
0.686146
0.671006
0.654103
0.636181
0.617222
0.598289
0.580045
0.561183
0.542494
0.524233
0.506497
0.489347
0.472852
0.457027
0.441906
0.427465
0.413712
0.400666
0.388301
0.376611
0.365573
0.355164
0.34536
0.336129
0.327447
0.319281
0.3116
0.304405
0.297661
0.29137
0.285589
0.28014
0.275361
0.270927
0.266803
0.264018
0.260586
0.258026
0.258299
0.262045
0.275447
0.300263
0.645996
0.663271
0.69453
0.711348
0.717939
0.716857
0.710228
0.699463
0.68578
0.670274
0.653099
0.635027
0.616047
0.597419
0.579001
0.560192
0.541693
0.523601
0.506035
0.489058
0.472725
0.457055
0.442083
0.427781
0.414155
0.401228
0.388973
0.37738
0.366429
0.356095
0.346355
0.337178
0.328541
0.320409
0.312755
0.305581
0.298854
0.292578
0.286808
0.281372
0.276603
0.272176
0.268072
0.265283
0.261855
0.259317
0.259564
0.263381
0.276921
0.30132
0.626443
0.65844
0.699536
0.71795
0.72337
0.720319
0.711877
0.699587
0.684773
0.668564
0.650822
0.632497
0.613752
0.595349
0.576659
0.558187
0.540031
0.522296
0.50509
0.488471
0.472484
0.457143
0.442484
0.428477
0.415123
0.402443
0.390417
0.37903
0.36826
0.358083
0.348477
0.339412
0.330865
0.322805
0.315208
0.308078
0.30139
0.295145
0.289398
0.283994
0.279245
0.274835
0.270778
0.267983
0.264566
0.262087
0.262354
0.26623
0.280098
0.303662
0.592784
0.657301
0.709229
0.727695
0.730353
0.724292
0.71339
0.699034
0.682833
0.66582
0.647288
0.6291
0.610526
0.591922
0.573532
0.555479
0.537797
0.520563
0.503866
0.487752
0.472249
0.457371
0.443149
0.429555
0.416589
0.40425
0.392545
0.381442
0.370921
0.360961
0.35154
0.342629
0.334204
0.326244
0.318727
0.311661
0.305026
0.29883
0.293122
0.287766
0.283051
0.278671
0.274684
0.271885
0.268489
0.266114
0.266434
0.270325
0.284798
0.307195
0.552939
0.658346
0.722855
0.737954
0.736521
0.7271
0.713682
0.697198
0.679728
0.662048
0.643256
0.62466
0.606171
0.587884
0.569919
0.552391
0.535284
0.518661
0.502577
0.487068
0.472146
0.457823
0.444125
0.431024
0.41852
0.406603
0.395266
0.384499
0.374273
0.364567
0.355362
0.346629
0.338347
0.330504
0.323083
0.316096
0.309531
0.303399
0.297745
0.292455
0.287789
0.283456
0.279561
0.276767
0.27341
0.271187
0.271593
0.275332
0.290863
0.311866
0.553304
0.691491
0.737211
0.744793
0.739467
0.727519
0.711977
0.694078
0.67553
0.657037
0.638287
0.619723
0.601472
0.583597
0.566152
0.549226
0.532767
0.516814
0.501404
0.486555
0.472266
0.458551
0.445423
0.43286
0.420855
0.409397
0.398467
0.388053
0.378144
0.368711
0.359735
0.351188
0.343059
0.33534
0.328028
0.321133
0.314653
0.308601
0.303019
0.297813
0.293213
0.288948
0.285164
0.282387
0.279094
0.277075
0.277594
0.281352
0.297746
0.317527
0.530142
0.69359
0.738481
0.745429
0.739739
0.725121
0.707929
0.68935
0.670247
0.651502
0.632878
0.614547
0.596684
0.579314
0.562477
0.546202
0.530426
0.515167
0.50045
0.486278
0.472637
0.459546
0.447003
0.434987
0.423489
0.412494
0.401983
0.391933
0.382338
0.373179
0.364432
0.356071
0.348097
0.340507
0.333312
0.326523
0.320142
0.314188
0.308697
0.303593
0.299079
0.294904
0.291249
0.288505
0.285309
0.283539
0.284197
0.288095
0.305222
0.324038
0.375222
0.680785
0.736724
0.742472
0.736347
0.720658
0.702456
0.68345
0.664274
0.645502
0.627135
0.609259
0.591898
0.575153
0.559029
0.543417
0.528331
0.51376
0.49973
0.486221
0.473217
0.460742
0.448769
0.437284
0.426277
0.415728
0.405622
0.395935
0.386651
0.377756
0.369229
0.36105
0.353231
0.345775
0.338704
0.332034
0.325771
0.319931
0.31455
0.30957
0.305162
0.301099
0.297587
0.294898
0.291835
0.290353
0.29117
0.295299
0.313051
0.33123
0.306439
0.652695
0.73208
0.738527
0.728455
0.714268
0.695467
0.676522
0.657611
0.639148
0.621215
0.603915
0.5872
0.571119
0.555733
0.540823
0.526433
0.512545
0.499169
0.486296
0.473902
0.462014
0.450579
0.439589
0.429045
0.418915
0.409192
0.399852
0.390876
0.382232
0.373916
0.365913
0.358253
0.350939
0.344004
0.337466
0.331339
0.325635
0.320385
0.315545
0.311264
0.307333
0.303978
0.301365
0.298472
0.297306
0.298301
0.302737
0.321008
0.338882
0.322798
0.630094
0.725849
0.730998
0.720941
0.705128
0.687604
0.668801
0.65011
0.632048
0.614787
0.598263
0.582337
0.567021
0.55242
0.538244
0.524528
0.511321
0.49858
0.48633
0.474525
0.463182
0.452248
0.441718
0.431606
0.421868
0.412504
0.40349
0.39481
0.386417
0.378301
0.370478
0.362986
0.355825
0.349045
0.342657
0.336681
0.331133
0.326035
0.321354
0.317217
0.313437
0.310249
0.307737
0.305051
0.304216
0.305407
0.310217
0.328889
0.346724
0.419963
0.631398
0.708366
0.717995
0.708795
0.693972
0.67754
0.659552
0.642742
0.625155
0.608475
0.592541
0.577227
0.562583
0.548679
0.535214
0.522249
0.509786
0.497733
0.48611
0.474893
0.464078
0.453647
0.443572
0.433874
0.424512
0.415496
0.406799
0.398406
0.390263
0.382355
0.374729
0.367424
0.360438
0.35384
0.347627
0.341827
0.336456
0.331533
0.327034
0.323061
0.31945
0.316442
0.314059
0.311621
0.311132
0.312547
0.317811
0.336761
0.354529
0.526703
0.632474
0.693017
0.700695
0.692386
0.678688
0.663433
0.647323
0.631435
0.615192
0.600494
0.585477
0.571092
0.557426
0.544404
0.53174
0.519526
0.507796
0.49642
0.4854
0.474763
0.464483
0.454568
0.444987
0.435718
0.426765
0.418117
0.409746
0.401645
0.393765
0.386102
0.378713
0.371637
0.364868
0.358499
0.352504
0.34692
0.341763
0.337047
0.332763
0.328985
0.325573
0.322772
0.320555
0.31842
0.318315
0.320005
0.325866
0.344962
0.362664
0.597486
0.642699
0.679639
0.68623
0.676892
0.66104
0.645252
0.630533
0.616365
0.60224
0.588684
0.575136
0.5622
0.549915
0.537889
0.526191
0.515089
0.504391
0.493921
0.483681
0.473782
0.46418
0.454853
0.445772
0.436931
0.428397
0.420117
0.412072
0.404259
0.39666
0.389288
0.382191
0.37541
0.368927
0.362861
0.357145
0.351841
0.346952
0.342489
0.338464
0.334916
0.33174
0.329186
0.327186
0.325428
0.325766
0.327812
0.334398
0.353623
0.371274
0.633936
0.650802
0.668494
0.671514
0.663745
0.64906
0.631117
0.613487
0.597975
0.584728
0.57272
0.56115
0.54991
0.539031
0.528444
0.517922
0.50825
0.498589
0.489085
0.479711
0.470717
0.461967
0.453369
0.444938
0.436683
0.428679
0.420858
0.413228
0.405771
0.398547
0.391571
0.384861
0.378438
0.372316
0.36662
0.361239
0.356274
0.351709
0.347545
0.343821
0.340533
0.337635
0.335371
0.33365
0.332364
0.333214
0.335734
0.343291
0.362507
0.38021
0.645897
0.651836
0.65768
0.656874
0.649535
0.637137
0.621336
0.603798
0.585885
0.569145
0.554955
0.543104
0.532873
0.523493
0.514604
0.505814
0.497394
0.489159
0.480923
0.472618
0.464862
0.457029
0.449227
0.441512
0.433955
0.426601
0.419323
0.4122
0.405215
0.398466
0.392008
0.385812
0.379908
0.374331
0.369132
0.364213
0.359716
0.355565
0.351778
0.348427
0.345445
0.342883
0.340954
0.339594
0.33891
0.34033
0.343535
0.352537
0.371268
0.38909
0.64406
0.645087
0.645264
0.641972
0.634697
0.623856
0.610237
0.594767
0.578225
0.561422
0.545153
0.530046
0.516995
0.505904
0.496632
0.488566
0.481285
0.474472
0.467763
0.46097
0.454357
0.447749
0.441076
0.434192
0.427647
0.421123
0.414505
0.408059
0.401703
0.395605
0.389821
0.384288
0.379046
0.374134
0.369525
0.365236
0.361324
0.357661
0.35435
0.351447
0.348841
0.346716
0.345225
0.34438
0.344509
0.346604
0.3509
0.361809
0.379126
0.397586
0.633584
0.632741
0.630605
0.626195
0.619137
0.609523
0.597718
0.584213
0.569526
0.554166
0.538636
0.523372
0.508908
0.495474
0.483469
0.47299
0.463944
0.456244
0.449569
0.443511
0.437892
0.432468
0.427042
0.421444
0.415898
0.410381
0.404782
0.399265
0.393744
0.388574
0.383713
0.37903
0.374664
0.370602
0.366795
0.363269
0.360002
0.357008
0.354343
0.351976
0.349878
0.348354
0.347475
0.34737
0.348598
0.351465
0.357426
0.370092
0.385934
0.405497
0.61808
0.616679
0.613849
0.609237
0.60266
0.594143
0.58386
0.572095
0.559168
0.545408
0.531171
0.5168
0.502623
0.488889
0.47591
0.463834
0.452717
0.442683
0.433777
0.42589
0.418926
0.412757
0.407205
0.40203
0.397192
0.392584
0.388056
0.383652
0.379323
0.375272
0.371552
0.368079
0.364871
0.361915
0.35916
0.356622
0.354244
0.35216
0.350288
0.348709
0.347473
0.346857
0.346979
0.347981
0.350455
0.354876
0.36313
0.376515
0.391469
0.412489
0.599701
0.598251
0.595421
0.591076
0.585145
0.577645
0.568673
0.558397
0.547022
0.534778
0.52192
0.508678
0.495282
0.481958
0.468934
0.456357
0.444333
0.432973
0.422371
0.412594
0.403548
0.395225
0.387683
0.38085
0.374769
0.369382
0.364613
0.360443
0.356785
0.353689
0.351157
0.349049
0.34727
0.345747
0.34441
0.343249
0.342237
0.341427
0.340846
0.340556
0.340686
0.341438
0.343059
0.346051
0.350443
0.356756
0.367082
0.380676
0.396346
0.417683
0.57966
0.578325
0.575729
0.57181
0.56654
0.55994
0.552071
0.543042
0.532989
0.522068
0.510454
0.498316
0.485829
0.473161
0.460465
0.447866
0.435472
0.423392
0.411716
0.400507
0.389778
0.379552
0.369908
0.360909
0.352747
0.345367
0.338874
0.333463
0.329123
0.325906
0.323788
0.322577
0.322045
0.321999
0.322304
0.322876
0.32368
0.324719
0.32602
0.327671
0.329827
0.332679
0.336523
0.341803
0.348683
0.357158
0.368987
0.383052
0.40067
0.419557
0.558596
0.557385
0.555022
0.551476
0.546743
0.54084
0.533822
0.525761
0.516746
0.50689
0.496311
0.485127
0.473464
0.461443
0.449176
0.436758
0.424279
0.41181
0.399412
0.387133
0.375026
0.363141
0.351566
0.340422
0.329944
0.320276
0.311772
0.304659
0.298985
0.295024
0.292894
0.292257
0.292761
0.294114
0.296101
0.298571
0.301443
0.30468
0.308278
0.312336
0.316984
0.322413
0.328879
0.33668
0.345676
0.356131
0.368938
0.385934
0.404537
0.413791
0.536712
0.535533
0.533237
0.529832
0.525341
0.519803
0.51327
0.5058
0.497463
0.488342
0.478505
0.46804
0.457031
0.445556
0.433684
0.42148
0.408998
0.396277
0.383351
0.370258
0.357038
0.343757
0.33051
0.317473
0.304963
0.293353
0.283188
0.27476
0.268273
0.263999
0.26212
0.262268
0.263926
0.26673
0.270417
0.274799
0.279758
0.285223
0.291184
0.297729
0.304903
0.312821
0.321876
0.331434
0.341825
0.353763
0.37023
0.387294
0.399617
0.401961
0.5136
0.512165
0.509446
0.505603
0.500744
0.494968
0.488341
0.480932
0.472807
0.46401
0.454579
0.444558
0.43399
0.422913
0.411364
0.399373
0.386946
0.374077
0.360758
0.347002
0.332872
0.318467
0.303929
0.289559
0.275744
0.262982
0.252189
0.243718
0.237705
0.234311
0.233612
0.235133
0.238277
0.242668
0.248054
0.254266
0.261179
0.268694
0.276762
0.285493
0.295043
0.304594
0.314652
0.325899
0.339218
0.354
0.367578
0.379462
0.386893
0.388133
0.48582
0.483582
0.478558
0.472505
0.465762
0.458475
0.450757
0.442687
0.434232
0.42535
0.416021
0.406235
0.395995
0.385334
0.374274
0.362744
0.350625
0.337851
0.324344
0.310137
0.295549
0.280985
0.266063
0.251492
0.237895
0.22539
0.215182
0.208589
0.204815
0.203732
0.205244
0.208723
0.213617
0.219663
0.226689
0.234557
0.243214
0.252647
0.262452
0.271883
0.28236
0.293681
0.306689
0.319362
0.331013
0.342777
0.352776
0.360676
0.364812
0.367081
0.452305
0.436806
0.407783
0.379137
0.359875
0.345011
0.333219
0.323082
0.313472
0.304111
0.294851
0.28561
0.276374
0.267276
0.258528
0.249449
0.239725
0.22937
0.218378
0.206978
0.195478
0.183979
0.172732
0.162219
0.152979
0.1455
0.140232
0.137295
0.136403
0.137317
0.139841
0.143633
0.148431
0.154139
0.160713
0.168126
0.176376
0.185462
0.195403
0.20602
0.217489
0.229702
0.242282
0.25475
0.266815
0.277871
0.286098
0.291691
0.288379
0.320646
)
;

boundaryField
{
    AXIS
    {
        type            empty;
    }
    OUTLET
    {
        type            calculated;
        value           nonuniform List<scalar> 
25
(
0.300263
0.30132
0.303662
0.307195
0.311866
0.317527
0.324038
0.33123
0.338882
0.346724
0.354529
0.362664
0.371274
0.38021
0.38909
0.397586
0.405497
0.412489
0.417683
0.419557
0.413791
0.401961
0.388133
0.367081
0.320646
)
;
    }
    COFLOW
    {
        type            calculated;
        value           uniform 0;
    }
    PILOT
    {
        type            calculated;
        value           uniform 0;
    }
    FUEL
    {
        type            calculated;
        value           uniform 0;
    }
    WALL
    {
        type            calculated;
        value           nonuniform List<scalar> 
50
(
0.452305
0.436806
0.407783
0.379137
0.359875
0.345011
0.333219
0.323082
0.313472
0.304111
0.294851
0.28561
0.276374
0.267276
0.258528
0.249449
0.239725
0.22937
0.218378
0.206978
0.195478
0.183979
0.172732
0.162219
0.152979
0.1455
0.140232
0.137295
0.136403
0.137317
0.139841
0.143633
0.148431
0.154139
0.160713
0.168126
0.176376
0.185462
0.195403
0.20602
0.217489
0.229702
0.242282
0.25475
0.266815
0.277871
0.286098
0.291691
0.288379
0.320646
)
;
    }
    front
    {
        type            wedge;
    }
    back
    {
        type            wedge;
    }
}


// ************************************************************************* //
