/*--------------------------------*- C++ -*----------------------------------*\
| =========                 |                                                 |
| \\      /  F ield         | OpenFOAM: The Open Source CFD Toolbox           |
|  \\    /   O peration     | Version:  2.4.x                                 |
|   \\  /    A nd           | Web:      www.OpenFOAM.org                      |
|    \\/     M anipulation  |                                                 |
\*---------------------------------------------------------------------------*/
FoamFile
{
    version     2.0;
    format      ascii;
    class       volScalarField;
    location    "0.02";
    object      alphat;
}
// * * * * * * * * * * * * * * * * * * * * * * * * * * * * * * * * * * * * * //

dimensions      [1 -1 -1 0 0 0 0];

internalField   nonuniform List<scalar> 
1250
(
0.0365514
0.0208737
0.0128102
0.00835423
0.00600122
0.00469409
0.00388421
0.00333451
0.00291653
0.00258765
0.00232973
0.00217315
0.00209235
0.00218791
0.00267529
0.0032426
0.00379453
0.00410785
0.00440069
0.00445987
0.00431185
0.00389356
0.00312027
0.00226347
0.00178811
0.00183785
0.00200219
0.00206768
0.00208072
0.00208131
0.0020794
0.00207748
0.00207726
0.00207803
0.00207828
0.00207744
0.00207646
0.00207694
0.00207699
0.00207709
0.00207712
0.00207703
0.00207712
0.00207789
0.00207879
0.00207806
0.00207672
0.00207667
0.00207738
0.00207747
0.0351285
0.0190101
0.0113335
0.00735106
0.0053708
0.00427907
0.00360531
0.00314021
0.00275906
0.00247401
0.00225091
0.00211924
0.00205586
0.00217573
0.00268315
0.00325448
0.00379482
0.0041086
0.00439962
0.00445691
0.00430762
0.00388726
0.00311254
0.00225819
0.00178741
0.00183952
0.00200311
0.00206785
0.00208066
0.00208121
0.00207928
0.00207736
0.00207713
0.00207796
0.00207824
0.00207734
0.00207637
0.00207688
0.00207694
0.00207702
0.002077
0.00207682
0.00207695
0.00207787
0.00207879
0.00207791
0.00207663
0.00207663
0.00207725
0.00207731
0.0312879
0.0148211
0.00837607
0.005566
0.00427669
0.0035712
0.0031095
0.00274868
0.00247196
0.00226048
0.00209928
0.00201391
0.00199147
0.0021511
0.00270377
0.00328328
0.0037946
0.00411318
0.00439682
0.00445087
0.00429823
0.00387285
0.00309457
0.00224615
0.00178595
0.00184334
0.00200513
0.0020682
0.00208054
0.00208099
0.00207905
0.00207711
0.00207689
0.00207783
0.00207816
0.00207716
0.00207622
0.00207679
0.00207687
0.0020769
0.00207676
0.00207656
0.00207676
0.00207782
0.00207869
0.00207771
0.00207651
0.00207659
0.00207706
0.00207703
0.0229767
0.00901398
0.00512221
0.0038214
0.00324836
0.00284548
0.00256976
0.00234239
0.0021628
0.00202369
0.00192939
0.00188521
0.00192726
0.00213559
0.00273944
0.00332393
0.00379743
0.0041211
0.00439274
0.00444176
0.00428499
0.00385024
0.00306627
0.00222741
0.00178419
0.00184966
0.00200837
0.00206876
0.00208036
0.00208068
0.0020787
0.00207676
0.00207656
0.00207757
0.00207795
0.00207691
0.00207602
0.00207664
0.00207675
0.00207672
0.00207643
0.00207625
0.00207653
0.00207769
0.00207847
0.00207744
0.00207635
0.00207647
0.00207679
0.00207669
0.010164
0.00385334
0.0030789
0.00275566
0.00252791
0.00231611
0.00217082
0.002018
0.00189957
0.00180503
0.00178374
0.00178386
0.00185746
0.00215168
0.00278934
0.00336725
0.00380736
0.00413183
0.00438826
0.00442899
0.00426666
0.00381906
0.0030276
0.00220245
0.00178261
0.00185849
0.00201268
0.0020695
0.00208011
0.00208026
0.00207823
0.00207628
0.00207611
0.00207717
0.00207762
0.00207656
0.00207572
0.00207636
0.00207652
0.00207642
0.00207598
0.00207586
0.00207623
0.00207746
0.0020781
0.00207707
0.00207613
0.00207622
0.0020764
0.00207629
0.00221598
0.00227826
0.00229045
0.00219168
0.00209322
0.00195522
0.00185253
0.00175829
0.00168475
0.00163227
0.00165701
0.00170577
0.00182038
0.00221619
0.00284842
0.00340901
0.00380903
0.00414331
0.0043813
0.00441193
0.00424241
0.00377885
0.00298218
0.00217211
0.00178188
0.00186973
0.00201789
0.00207034
0.00207978
0.00207972
0.00207763
0.00207568
0.00207556
0.00207664
0.00207719
0.00207613
0.00207531
0.00207596
0.00207615
0.00207606
0.00207551
0.00207531
0.00207583
0.00207713
0.00207757
0.00207658
0.00207579
0.00207583
0.00207591
0.00207582
0.00083354
0.00149863
0.00175484
0.00179897
0.00178588
0.00169378
0.00162721
0.00156919
0.00152576
0.00150789
0.00157365
0.0016666
0.00183879
0.00231535
0.00291579
0.00344412
0.00381523
0.00415297
0.00437588
0.00439078
0.00421149
0.00373357
0.00293232
0.00213755
0.00178275
0.00188317
0.00202375
0.00207121
0.00207935
0.00207906
0.0020769
0.00207497
0.00207491
0.002076
0.00207667
0.00207564
0.00207481
0.00207524
0.00207544
0.00207546
0.00207484
0.00207458
0.0020753
0.00207667
0.00207692
0.00207595
0.00207531
0.00207529
0.00207532
0.00207525
0.000340701
0.00104284
0.00134718
0.00146833
0.00150793
0.00147638
0.00144556
0.00142172
0.00141029
0.00143259
0.00154014
0.00166668
0.00190816
0.00243301
0.00298992
0.00347213
0.00382442
0.00416186
0.00436522
0.00436533
0.00417313
0.00367946
0.00287455
0.00210027
0.00178603
0.0018985
0.00202996
0.00207203
0.00207881
0.00207828
0.00207604
0.00207417
0.00207419
0.00207526
0.00207611
0.00207514
0.00207422
0.00207429
0.00207453
0.00207479
0.00207406
0.00207371
0.00207461
0.00207605
0.00207614
0.00207517
0.00207458
0.00207458
0.00207462
0.00207454
0.000343474
0.000765123
0.00101949
0.00116341
0.00124837
0.00128584
0.00128692
0.00130741
0.00133138
0.00140479
0.00154227
0.00170708
0.00202118
0.00254736
0.00305736
0.00350529
0.00383911
0.00416874
0.00434252
0.00433283
0.00412668
0.0036161
0.00280964
0.00206208
0.00179241
0.00191526
0.00203624
0.00207274
0.00207815
0.00207737
0.00207507
0.00207334
0.00207343
0.0020744
0.00207529
0.00207423
0.00207332
0.00207331
0.00207355
0.002074
0.0020732
0.00207276
0.0020738
0.00207527
0.00207527
0.00207428
0.00207376
0.00207378
0.0020738
0.00207373
0.000657478
0.000695153
0.000804896
0.000929057
0.00103772
0.0011164
0.00116713
0.0012316
0.00129306
0.00140316
0.00157312
0.00179332
0.00216245
0.00264491
0.0031115
0.00351648
0.00385628
0.00416749
0.00431749
0.00429883
0.00407372
0.00354368
0.002739
0.00202498
0.00180235
0.00193289
0.0020423
0.00207326
0.00207737
0.00207636
0.00207402
0.00207252
0.00207264
0.00207342
0.00207427
0.00207318
0.00207237
0.00207232
0.00207253
0.00207307
0.00207229
0.00207177
0.00207286
0.00207435
0.00207432
0.00207332
0.00207283
0.00207285
0.00207288
0.00207282
0.0028097
0.00108932
0.000788707
0.000801858
0.000905966
0.00100889
0.00110054
0.00120159
0.0013091
0.00145912
0.00165388
0.0019167
0.00228902
0.00273174
0.00316592
0.00353402
0.00386961
0.00416054
0.00428645
0.00425785
0.00401183
0.00346021
0.00266209
0.00198991
0.00181642
0.00195127
0.00204809
0.00207358
0.00207645
0.0020752
0.00207289
0.00207164
0.00207175
0.00207227
0.00207304
0.00207199
0.00207129
0.00207124
0.00207142
0.00207201
0.00207126
0.00207067
0.00207178
0.00207329
0.00207329
0.00207224
0.00207176
0.0020718
0.00207182
0.00207178
0.0054373
0.00203631
0.00105921
0.000846087
0.000887843
0.0009929
0.00110967
0.00123594
0.00137818
0.00155658
0.00178133
0.00205628
0.00240848
0.00282039
0.00320027
0.00355927
0.00388192
0.00414839
0.00424827
0.00420337
0.00393287
0.00335825
0.00257391
0.00195622
0.00183599
0.00197113
0.00205377
0.0020737
0.00207536
0.00207385
0.00207163
0.00207063
0.00207076
0.00207102
0.00207157
0.00207066
0.00207004
0.00207
0.00207016
0.00207076
0.00207006
0.00206942
0.00207049
0.00207205
0.00207214
0.00207104
0.00207056
0.00207059
0.0020706
0.00207057
0.00693623
0.00308339
0.00152361
0.00104444
0.00101042
0.00108731
0.00120157
0.00133904
0.00150698
0.0017022
0.00193747
0.0022207
0.00254695
0.00289674
0.00325556
0.00358697
0.0038935
0.00411704
0.00419822
0.00413344
0.00382853
0.00322842
0.00246955
0.00192492
0.00186274
0.00199271
0.00205933
0.00207356
0.00207405
0.00207229
0.00207007
0.00206942
0.00206983
0.00206984
0.00207002
0.00206924
0.00206862
0.00206859
0.00206873
0.00206931
0.00206867
0.00206799
0.002069
0.00207061
0.00207085
0.00206962
0.00206904
0.0020691
0.00206915
0.00206916
0.00758738
0.00378527
0.00193026
0.00128682
0.00119859
0.00126613
0.00137912
0.00151545
0.00167686
0.00186893
0.00209717
0.00236587
0.00266386
0.00299078
0.0033211
0.00361974
0.00390372
0.00407826
0.00413875
0.00403793
0.00369169
0.00306774
0.00234844
0.0019007
0.00189784
0.00201516
0.00206441
0.00207312
0.00207256
0.00207054
0.00206822
0.0020677
0.00206836
0.00206841
0.00206853
0.00206786
0.0020671
0.00206704
0.0020672
0.00206771
0.00206713
0.00206642
0.00206733
0.00206902
0.00206944
0.00206809
0.00206732
0.00206743
0.00206751
0.00206753
0.00782398
0.0041195
0.00218117
0.00149307
0.00140043
0.00146784
0.00158505
0.00172858
0.00188897
0.00207479
0.00229121
0.00253927
0.00280853
0.00309652
0.003391
0.00366087
0.00388987
0.00402979
0.00405804
0.00390843
0.00351726
0.00288154
0.00221574
0.00189167
0.00194093
0.0020367
0.00206849
0.00207231
0.00207091
0.00206867
0.00206621
0.00206565
0.00206652
0.00206683
0.00206707
0.00206659
0.00206557
0.00206529
0.00206558
0.00206607
0.00206549
0.00206471
0.00206553
0.00206734
0.00206793
0.0020665
0.00206557
0.00206584
0.00206595
0.00206586
0.00790596
0.00427456
0.00235563
0.00166993
0.0015925
0.00167401
0.00179834
0.00194306
0.00210511
0.00228839
0.00249453
0.00271986
0.00295995
0.00320894
0.00345491
0.00367941
0.00386833
0.00396911
0.00394076
0.00372394
0.0032819
0.00265436
0.00208727
0.00190757
0.00198825
0.00205485
0.00207101
0.00207107
0.00206915
0.00206673
0.00206412
0.00206343
0.00206441
0.00206519
0.00206581
0.00206554
0.0020644
0.00206359
0.00206395
0.00206445
0.00206381
0.00206288
0.00206364
0.00206562
0.00206628
0.00206492
0.00206392
0.00206419
0.0020643
0.00206421
0.00798177
0.00441962
0.00252334
0.00184003
0.00177897
0.00187444
0.00200941
0.00215817
0.00231762
0.00249109
0.00267902
0.00288155
0.00309092
0.00329848
0.00350361
0.00369226
0.00382816
0.00386375
0.00375935
0.0034687
0.00297789
0.00239451
0.00199384
0.00195243
0.00203177
0.00206717
0.00207164
0.00206941
0.00206732
0.00206481
0.00206217
0.00206149
0.00206266
0.00206353
0.00206424
0.00206419
0.00206314
0.00206184
0.00206232
0.00206284
0.00206208
0.00206104
0.00206174
0.0020638
0.0020646
0.00206345
0.0020624
0.00206253
0.00206265
0.00206269
0.00814136
0.00467429
0.0027465
0.00201927
0.00194044
0.00204252
0.00219443
0.00235391
0.00251593
0.00268221
0.00285433
0.00303212
0.00320965
0.00337561
0.00353322
0.00366451
0.00372186
0.00367211
0.00347707
0.00311925
0.00262715
0.00215411
0.00197022
0.00201311
0.00206194
0.00207251
0.00207038
0.0020673
0.00206536
0.00206294
0.00206045
0.00205979
0.00206086
0.00206151
0.00206204
0.00206249
0.00206197
0.00206032
0.00206034
0.00206086
0.00206011
0.00205922
0.00205982
0.00206172
0.0020623
0.00206106
0.00206046
0.00206094
0.002061
0.00206113
0.00843443
0.00513859
0.0031108
0.00223166
0.00206688
0.00214775
0.00230273
0.00247234
0.00264287
0.00280616
0.00296633
0.00311933
0.00326029
0.00337617
0.00347346
0.00352636
0.00348556
0.00335033
0.00307267
0.00268703
0.00226294
0.00202232
0.00201506
0.00206055
0.00207416
0.00207159
0.00206732
0.00206439
0.00206276
0.00206058
0.00205835
0.00205775
0.00205847
0.00205882
0.00205935
0.00205951
0.0020589
0.00205791
0.00205798
0.0020577
0.00205726
0.00205709
0.0020574
0.00205883
0.00205943
0.00205822
0.00205782
0.00205856
0.00205862
0.00205881
0.00886631
0.00590088
0.00376168
0.00259683
0.00220957
0.00218875
0.00229816
0.00246267
0.00262904
0.00278372
0.00292313
0.00304466
0.00314272
0.00320281
0.0032398
0.00320575
0.00307871
0.00286131
0.00256266
0.0022418
0.00204986
0.00203228
0.00206588
0.00207576
0.00207105
0.00206523
0.00206125
0.00205877
0.0020574
0.00205551
0.0020537
0.00205304
0.00205304
0.00205341
0.00205465
0.0020551
0.00205436
0.0020532
0.00205284
0.00205212
0.00205195
0.00205241
0.00205296
0.00205395
0.00205394
0.00205285
0.00205271
0.00205337
0.00205335
0.00205371
0.00934611
0.00690942
0.00482836
0.00337763
0.00257199
0.00225567
0.00221341
0.00229191
0.00241119
0.00253367
0.00264155
0.00272663
0.00277297
0.00278216
0.00275283
0.00265055
0.00248592
0.00228432
0.00211003
0.00203379
0.0020457
0.0020685
0.00206976
0.00206128
0.00205351
0.00204864
0.00204557
0.00204341
0.00204202
0.00204078
0.00203962
0.00203948
0.00203938
0.00203948
0.00204027
0.00204108
0.00204106
0.00203957
0.00203885
0.00203855
0.00203806
0.00203808
0.00203828
0.00203881
0.0020392
0.0020386
0.00203814
0.00203847
0.00203904
0.00203954
0.0097196
0.00783046
0.00605571
0.00457774
0.00346584
0.00273271
0.00231983
0.00213719
0.00208991
0.00210839
0.00214725
0.00217728
0.00218067
0.00216306
0.00211495
0.00205171
0.00199927
0.0019824
0.00200254
0.00202966
0.00203792
0.00203015
0.00201835
0.00200872
0.00200223
0.00199855
0.00199688
0.00199568
0.00199406
0.00199243
0.00199253
0.00199324
0.00199272
0.00199239
0.00199279
0.00199338
0.00199396
0.00199273
0.00199146
0.00199155
0.00199247
0.00199295
0.00199229
0.00199206
0.00199225
0.00199228
0.0019919
0.00199184
0.00199181
0.00199161
0.00967773
0.0078639
0.00637464
0.00516536
0.00417878
0.0033807
0.00276116
0.00239701
0.00214926
0.00198848
0.0019063
0.00188304
0.00187837
0.00186141
0.00185421
0.00185997
0.00187084
0.0018752
0.0018765
0.00188973
0.00188181
0.00186952
0.00185748
0.00185163
0.00184712
0.00184395
0.00184217
0.00184062
0.00183942
0.00183856
0.0018378
0.00183715
0.00183684
0.00183685
0.00183687
0.00183759
0.00183841
0.00183803
0.00183801
0.00183754
0.00183716
0.00183773
0.00183708
0.00183633
0.00183634
0.00183627
0.00183625
0.00183659
0.00183625
0.00183553
0.00737767
0.0050829
0.00403747
0.00341287
0.00295076
0.00257707
0.00226471
0.00202526
0.00182581
0.00168669
0.00160453
0.00155869
0.00153068
0.00150981
0.00149294
0.00148413
0.00147183
0.00145826
0.00144761
0.00143798
0.00142853
0.00141999
0.00141238
0.00140637
0.00140197
0.00139813
0.00139643
0.00139613
0.00139583
0.00139545
0.00139412
0.00139208
0.00139127
0.00139121
0.00139118
0.00139101
0.00139148
0.00139168
0.00139164
0.00139168
0.00139169
0.00139207
0.00139187
0.00139161
0.00139146
0.0013908
0.00139011
0.00139
0.00139035
0.00139021
0.000678847
0.000631153
0.00057452
0.000529206
0.000492954
0.000460619
0.000445293
0.000435726
0.000429358
0.000425527
0.000423516
0.000422629
0.000422322
0.000422271
0.000422338
0.000422455
0.000422563
0.000422607
0.000422535
0.000422266
0.000421822
0.000421271
0.000420724
0.000420259
0.000419904
0.000419659
0.000419513
0.000419442
0.000419417
0.00041941
0.000419401
0.000419393
0.0004194
0.000419424
0.000419468
0.000419532
0.000419617
0.000419712
0.00041981
0.000419908
0.000420004
0.000420097
0.000420185
0.000420276
0.000420365
0.000420442
0.000420506
0.000420562
0.000420616
0.000420648
)
;

boundaryField
{
    AXIS
    {
        type            empty;
    }
    OUTLET
    {
        type            calculated;
        value           nonuniform List<scalar> 
25
(
0.0020775
0.00207734
0.00207706
0.00207672
0.00207632
0.00207585
0.00207528
0.00207457
0.00207376
0.00207285
0.00207181
0.0020706
0.00206919
0.00206756
0.00206589
0.00206424
0.00206272
0.00206116
0.00205884
0.00205374
0.00203957
0.00199163
0.00183556
0.00139023
0.000420654
)
;
    }
    COFLOW
    {
        type            calculated;
        value           nonuniform List<scalar> 
15
(
0.0106169
0.0106169
0.0106168
0.0106167
0.0106167
0.0106167
0.0106167
0.0106167
0.0106166
0.0106166
0.0106166
0.0106166
0.0106166
0.0106166
0.0106166
)
;
    }
    PILOT
    {
        type            calculated;
        value           nonuniform List<scalar> 5(0.00141019 0.00141022 0.00141035 0.00141039 0.00141042);
    }
    FUEL
    {
        type            calculated;
        value           nonuniform List<scalar> 5(0.0472606 0.0472593 0.0472651 0.0472819 0.0472926);
    }
    WALL
    {
        type            compressible::alphatWallFunction;
        Prt             0.85;
        value           nonuniform List<scalar> 
50
(
9.6169e-05
8.90956e-05
8.06117e-05
7.37507e-05
6.82099e-05
6.32421e-05
6.08905e-05
5.94119e-05
5.84285e-05
5.78383e-05
5.75299e-05
5.73955e-05
5.73504e-05
5.73448e-05
5.73576e-05
5.7378e-05
5.73966e-05
5.7405e-05
5.73942e-05
5.7352e-05
5.72823e-05
5.71962e-05
5.71111e-05
5.70392e-05
5.69846e-05
5.6947e-05
5.69249e-05
5.69144e-05
5.6911e-05
5.69102e-05
5.69091e-05
5.69084e-05
5.69099e-05
5.69141e-05
5.69214e-05
5.69319e-05
5.69456e-05
5.69609e-05
5.69767e-05
5.69924e-05
5.70078e-05
5.70226e-05
5.70367e-05
5.70514e-05
5.70657e-05
5.70781e-05
5.70884e-05
5.70974e-05
5.71062e-05
5.71114e-05
)
;
    }
    front
    {
        type            wedge;
    }
    back
    {
        type            wedge;
    }
}


// ************************************************************************* //
