/*--------------------------------*- C++ -*----------------------------------*\
| =========                 |                                                 |
| \\      /  F ield         | OpenFOAM: The Open Source CFD Toolbox           |
|  \\    /   O peration     | Version:  2.4.x                                 |
|   \\  /    A nd           | Web:      www.OpenFOAM.org                      |
|    \\/     M anipulation  |                                                 |
\*---------------------------------------------------------------------------*/
FoamFile
{
    version     2.0;
    format      ascii;
    class       volScalarField;
    location    "0.02";
    object      chi;
}
// * * * * * * * * * * * * * * * * * * * * * * * * * * * * * * * * * * * * * //

dimensions      [0 0 -1 0 0 0 0];

internalField   nonuniform List<scalar> 
1250
(
0.0307514
0.210562
0.657377
1.51377
2.85122
4.60402
6.60002
8.72575
10.7371
12.6528
14.5526
17.1939
22.2201
32.2351
41.5325
44.7647
37.2744
24.8878
14.4566
7.39147
3.40684
1.40738
0.497895
0.137753
0.0284122
0.00510369
0.00103612
0.000232698
5.17947e-05
1.08902e-05
2.1354e-06
3.89242e-07
6.5912e-08
1.03786e-08
1.52223e-09
2.08195e-10
2.65631e-11
3.1643e-12
3.5258e-13
3.6767e-14
3.59226e-15
3.29156e-16
2.83058e-17
2.28646e-18
1.73661e-19
1.24198e-20
8.36774e-22
5.31262e-23
3.1831e-24
1.79234e-25
0.0360693
0.254559
0.818209
1.89939
3.52457
5.55469
7.77409
9.97434
12.0086
13.8613
15.7179
18.2684
23.3345
33.2744
41.8839
44.6674
36.8984
24.6252
14.2963
7.31307
3.37227
1.39345
0.492746
0.136162
0.0280541
0.00504437
0.00102596
0.000230623
5.13482e-05
1.07978e-05
2.11751e-06
3.86024e-07
6.53747e-08
1.02951e-08
1.51014e-09
2.06572e-10
2.63595e-11
3.14044e-12
3.49969e-13
3.65002e-14
3.56677e-15
3.26877e-16
2.81135e-17
2.27115e-18
1.72528e-19
1.23418e-20
8.31672e-22
5.28146e-23
3.16539e-24
1.78306e-25
0.0526517
0.407806
1.3997
3.21394
5.66257
8.34441
10.9276
13.2196
15.1625
16.8029
18.4104
20.7849
25.8818
35.2355
42.536
44.4178
36.0273
24.0221
13.9281
7.1318
3.2921
1.36107
0.480791
0.132505
0.0272389
0.00491046
0.00100311
0.000225964
5.03498e-05
1.05921e-05
2.07787e-06
3.78922e-07
6.4194e-08
1.01126e-08
1.48392e-09
2.03073e-10
2.59236e-11
3.0898e-12
3.44484e-13
3.59462e-14
3.51449e-15
3.22247e-16
2.77283e-17
2.24109e-18
1.70347e-19
1.21936e-20
8.22162e-22
5.22424e-23
3.13334e-24
1.76627e-25
0.110393
1.00543
3.56908
7.39317
11.3249
14.7493
17.4198
19.4307
20.8281
21.8394
22.88
24.9348
29.7538
37.9822
43.3516
43.8742
34.7375
23.1096
13.3692
6.85524
3.16914
1.3111
0.462236
0.126799
0.025964
0.00470156
0.000967332
0.000218643
4.87765e-05
1.0267e-05
2.015e-06
3.67615e-07
6.23052e-08
9.81941e-09
1.44159e-09
1.97386e-10
2.52113e-11
3.00659e-12
3.35404e-13
3.50223e-14
3.42657e-15
3.14389e-16
2.70699e-17
2.18937e-18
1.66552e-19
1.19317e-20
8.05143e-22
5.12053e-23
3.0741e-24
1.73437e-25
0.557214
4.81833
12.7688
19.8917
24.6455
27.5551
28.8613
29.5178
29.4657
29.2924
29.0873
30.4701
34.7434
40.959
44.0183
42.8365
33.0849
21.9178
12.6468
6.49622
3.00885
1.24562
0.437801
0.119284
0.0242946
0.00442854
0.000920213
0.000208941
4.66856e-05
9.83411e-06
1.93112e-06
3.52495e-07
5.97733e-08
9.42542e-09
1.38452e-09
1.8969e-10
2.4244e-11
2.89318e-12
3.22976e-13
3.37517e-14
3.30496e-15
3.03464e-16
2.61504e-17
2.11679e-18
1.6119e-19
1.15588e-20
7.80739e-22
4.97074e-23
2.98762e-24
1.68734e-25
12.1925
30.1188
42.6158
46.7086
47.7562
47.1053
45.0608
42.7193
40.4185
38.5726
36.6446
36.7166
40.1643
43.3692
44.2886
41.1924
31.0949
20.4845
11.7957
6.07107
2.81835
1.16739
0.408531
0.110319
0.0223273
0.00410739
0.000864148
0.000197309
4.41724e-05
9.31329e-06
1.83013e-06
3.34276e-07
5.672e-08
8.95e-09
1.31558e-09
1.8038e-10
2.30724e-11
2.75566e-12
3.0788e-13
3.22038e-14
3.15648e-15
2.90117e-16
2.50247e-17
2.0278e-18
1.54602e-19
1.10993e-20
7.50609e-22
4.78536e-23
2.88015e-24
1.6287e-25
23.8434
62.2407
74.9751
74.7052
71.4008
67.0378
61.3205
56.0385
51.4041
47.7832
44.1478
42.8263
44.6532
44.6276
43.9044
38.8471
28.8195
18.8711
10.848
5.59824
2.60584
1.0797
0.375678
0.100335
0.0201722
0.0037561
0.000801911
0.000184279
4.135e-05
8.72818e-06
1.71669e-06
3.13816e-07
5.32923e-08
8.41656e-09
1.23823e-09
1.69936e-10
2.17589e-11
2.60172e-12
2.90985e-13
3.047e-14
2.99021e-15
2.75172e-16
2.37646e-17
1.92825e-18
1.47234e-19
1.05858e-20
7.16971e-22
4.57847e-23
2.76025e-24
1.5634e-25
9.71684
55.2307
83.1339
87.347
84.0507
78.7774
71.8947
65.2364
59.3105
54.4199
49.656
47.3792
47.0564
44.6465
42.4606
35.8946
26.3276
17.1325
9.84618
5.09743
2.38003
0.986096
0.340618
0.0897979
0.0179414
0.00339236
0.000736352
0.000170414
3.83397e-05
8.10418e-06
1.5958e-06
2.92033e-07
4.96478e-08
7.85025e-09
1.15621e-09
1.58872e-10
2.037e-11
2.43932e-12
2.73184e-13
2.86447e-14
2.81559e-15
2.59515e-16
2.24478e-17
1.82453e-18
1.39575e-19
1.00541e-20
6.82288e-22
4.36583e-23
2.63753e-24
1.49691e-25
3.89411
32.2025
64.9519
79.4855
81.2908
78.4949
73.672
67.5609
61.8905
56.5089
51.7741
49.0797
46.6747
43.4161
39.7708
32.6055
23.7052
15.3371
8.83284
4.58807
2.14963
0.890146
0.304741
0.0791694
0.0157398
0.0030325
0.000670216
0.000156284
3.5265e-05
7.4673e-06
1.4726e-06
2.6987e-07
4.59486e-08
7.27699e-09
1.07347e-09
1.47751e-10
1.89768e-11
2.27656e-12
2.55418e-13
2.68307e-14
2.64261e-15
2.44076e-16
2.1156e-17
1.72334e-18
1.32143e-19
9.54171e-21
6.49119e-22
4.16424e-23
2.52235e-24
1.43518e-25
1.79718
13.0209
35.4918
54.8516
64.2132
66.6367
65.5723
62.0259
58.4447
54.2233
50.2646
47.3758
44.2252
40.8777
36.2695
29.1327
21.0383
13.5685
7.8373
4.0883
1.92275
0.795207
0.269372
0.0688789
0.0136582
0.00269046
0.000606021
0.000142432
3.22462e-05
6.84296e-06
1.35209e-06
2.48256e-07
4.23544e-08
6.72227e-09
9.93766e-10
1.37079e-10
1.76454e-11
2.12182e-12
2.38629e-13
2.51284e-14
2.48132e-15
2.2979e-16
1.99718e-17
1.63149e-18
1.25468e-19
9.08733e-21
6.20145e-22
3.99118e-23
2.42545e-24
1.38445e-25
0.184004
3.01789
13.1466
28.5079
40.8307
47.8456
50.8475
51.0674
49.9071
47.7582
45.5227
43.1847
40.3785
37.0593
32.1988
25.527
18.3564
11.8286
6.86177
3.59835
1.69928
0.701283
0.234604
0.0589799
0.0117039
0.00236638
0.000543798
0.000128875
2.92886e-05
6.23244e-06
1.23459e-06
2.27258e-07
3.88787e-08
6.18853e-09
9.17497e-10
1.26924e-10
1.63868e-11
1.97656e-12
2.22999e-13
2.35584e-14
2.33402e-15
2.16894e-16
1.89174e-17
1.55094e-18
1.19718e-19
8.70441e-21
5.96361e-22
3.85355e-23
2.35137e-24
1.34754e-25
0.0535917
0.728035
3.99715
11.6236
21.0595
28.8659
34.1809
37.2257
38.6027
38.7638
38.177
37.0778
35.217
32.1582
27.5933
21.7041
15.5801
10.0556
5.8675
3.09698
1.46887
0.603877
0.198856
0.049055
0.0097878
0.00204287
0.000479872
0.000114764
2.61991e-05
5.59422e-06
1.11174e-06
2.05319e-07
3.52495e-08
5.63164e-09
8.38054e-10
1.16361e-10
1.50804e-11
1.82614e-12
2.06858e-13
2.19429e-14
2.18307e-15
2.03742e-16
1.78486e-17
1.46989e-18
1.13983e-19
8.32698e-21
5.73266e-22
3.72256e-23
2.28273e-24
1.31458e-25
0.025556
0.263467
1.42364
4.72795
9.99824
15.633
20.6581
24.6266
27.4457
29.1947
29.9963
29.8744
28.845
26.427
22.5599
17.7044
12.7153
8.24144
4.8444
2.57652
1.22657
0.500623
0.161397
0.0389603
0.00787431
0.00170931
0.000411365
9.93557e-05
2.27961e-05
4.88709e-06
9.74909e-07
1.80727e-07
3.11507e-08
4.99826e-09
7.47096e-10
1.04178e-10
1.35619e-11
1.64975e-12
1.87747e-13
2.00104e-14
2.00043e-15
1.87624e-16
1.652e-17
1.36748e-18
1.06598e-19
7.83015e-21
5.42051e-22
3.53945e-23
2.18262e-24
1.26383e-25
0.0142352
0.127796
0.662044
2.2911
5.11136
8.54497
12.1275
15.5077
18.4205
20.6701
22.1208
22.6358
22.2082
20.4472
17.4433
13.7232
9.88685
6.45231
3.82512
2.05047
0.977497
0.3937
0.123283
0.0290687
0.00602259
0.00137082
0.000338542
8.26061e-05
1.90535e-05
4.10224e-06
8.21692e-07
1.52945e-07
2.64723e-08
4.26637e-09
6.40623e-10
8.97477e-11
1.17393e-11
1.43495e-12
1.6411e-13
1.75796e-14
1.76645e-15
1.66553e-16
1.4744e-17
1.22714e-18
9.61909e-20
7.10675e-21
4.94876e-22
3.25037e-23
2.01623e-24
1.17423e-25
0.00831038
0.0713791
0.364181
1.27569
2.87228
4.91555
7.22092
9.61662
11.9052
13.8771
15.3181
16.0204
15.9225
14.7737
12.6489
10.0039
7.25114
4.77298
2.8554
1.54091
0.73187
0.287864
0.0866208
0.0200107
0.00432861
0.00104062
0.000263786
6.501e-05
1.50726e-05
3.25892e-06
6.55422e-07
1.2249e-07
2.12875e-08
3.44532e-09
5.19665e-10
7.31393e-11
9.61285e-12
1.18074e-12
1.35692e-13
1.46086e-14
1.4755e-15
1.39857e-16
1.2448e-17
1.04173e-18
8.21173e-20
6.10243e-21
4.27463e-22
2.82412e-23
1.76232e-24
1.03238e-25
0.00489151
0.0417211
0.212746
0.74557
1.67395
2.88586
4.30554
5.85387
7.41401
8.83564
9.94164
10.5502
10.5788
9.89456
8.52177
6.78821
4.9563
3.29276
1.98701
1.07505
0.503544
0.190382
0.0544158
0.0125106
0.00289285
0.000737057
0.000191423
4.76033e-05
1.10889e-05
2.40665e-06
4.85816e-07
9.11267e-08
1.58954e-08
2.58239e-09
3.91104e-10
5.52808e-11
7.29809e-12
9.00583e-13
1.03969e-13
1.12465e-14
1.14151e-15
1.08748e-16
9.72934e-18
8.18509e-19
6.48744e-20
4.84805e-21
3.41539e-22
2.26954e-23
1.42451e-24
8.39205e-26
0.00285376
0.0240944
0.12215
0.4263
0.956439
1.6563
2.49048
3.41982
4.38035
5.27913
5.99969
6.41912
6.469
6.09053
5.27759
4.23568
3.11564
2.08754
1.26539
0.679511
0.308125
0.109562
0.0296727
0.00704243
0.00177873
0.000478625
0.00012684
3.17757e-05
7.43034e-06
1.61749e-06
3.27437e-07
6.1599e-08
1.0777e-08
1.75653e-09
2.66939e-10
3.78662e-11
5.01826e-12
6.21746e-13
7.20654e-14
7.82876e-15
7.98133e-16
7.63839e-17
6.86619e-18
5.80451e-19
4.62371e-20
3.47306e-21
2.45979e-22
1.64356e-23
1.03729e-24
6.14322e-26
0.00161766
0.0130871
0.0643844
0.224603
0.511249
0.894921
1.35562
1.87199
2.40947
2.91632
3.32643
3.57042
3.60455
3.40811
2.96993
2.39819
1.77241
1.19122
0.717358
0.374623
0.159552
0.0522531
0.0138214
0.00357534
0.000992031
0.000278727
7.49432e-05
1.88718e-05
4.42426e-06
9.64879e-07
1.95633e-07
3.68667e-08
6.46344e-09
1.0559e-09
1.60857e-10
2.2874e-11
3.03999e-12
3.77884e-13
4.39497e-14
4.79094e-15
4.9021e-16
4.70944e-17
4.2508e-18
3.60902e-19
2.88785e-20
2.17917e-21
1.55034e-22
1.0408e-23
6.60185e-25
3.92888e-26
0.000870949
0.00641365
0.0292661
0.101709
0.241355
0.435443
0.670646
0.934098
1.20732
1.46369
1.66998
1.79197
1.80719
1.71038
1.49473
1.20666
0.888819
0.590491
0.344794
0.168579
0.0651605
0.0199768
0.00560466
0.00163931
0.000490321
0.000141598
3.83958e-05
9.69475e-06
2.27494e-06
4.96293e-07
1.00637e-07
1.8969e-08
3.32758e-09
5.44121e-10
8.298e-11
1.18174e-11
1.57336e-12
1.95927e-13
2.28381e-14
2.49652e-15
2.56101e-16
2.46733e-17
2.23465e-18
1.90413e-19
1.52906e-20
1.15814e-21
8.27127e-23
5.57518e-24
3.55166e-25
2.12263e-26
0.000440838
0.00279361
0.0109875
0.0363546
0.092109
0.177627
0.285124
0.406401
0.531302
0.647007
0.738386
0.790441
0.79372
0.748669
0.650028
0.516913
0.372058
0.236579
0.127869
0.0561221
0.0199528
0.00637259
0.00204953
0.000664505
0.000207403
6.06903e-05
1.65127e-05
4.17046e-06
9.77746e-07
2.12997e-07
4.31231e-08
8.11816e-09
1.42292e-09
2.32446e-10
3.54234e-11
5.04499e-12
6.72016e-13
8.37527e-14
9.77552e-15
1.07022e-15
1.0995e-16
1.06106e-17
9.63076e-19
8.22826e-20
6.62624e-21
5.03247e-22
3.60466e-23
2.43761e-24
1.55821e-25
9.3434e-27
0.000209973
0.00111235
0.00353433
0.00997434
0.0251988
0.0532186
0.0931082
0.140536
0.189921
0.235042
0.269395
0.287143
0.285615
0.265822
0.223982
0.170503
0.114947
0.0666044
0.0323059
0.0132954
0.00500917
0.00184814
0.000665512
0.000226914
7.1984e-05
2.11428e-05
5.74995e-06
1.44927e-06
3.38842e-07
7.35667e-08
1.48454e-08
2.78646e-09
4.87173e-10
7.9414e-11
1.20822e-11
1.71778e-12
2.2849e-13
2.84645e-14
3.32212e-15
3.63675e-16
3.73853e-17
3.61108e-18
3.28106e-19
2.80694e-20
2.26321e-21
1.72145e-22
1.23554e-23
8.3739e-25
5.36396e-26
3.22359e-27
9.33241e-05
0.000426445
0.00110751
0.00252149
0.00542163
0.0109512
0.0200882
0.0325619
0.0466507
0.0597736
0.0693064
0.0732614
0.071811
0.0644743
0.0512252
0.0361908
0.022435
0.0121895
0.00594754
0.00270671
0.00116909
0.000474298
0.000178142
6.15567e-05
1.95708e-05
5.7371e-06
1.55423e-06
3.89976e-07
9.07691e-08
1.96137e-08
3.93699e-09
7.35409e-10
1.28048e-10
2.07932e-11
3.15262e-12
4.46814e-13
5.92555e-14
7.36437e-15
8.5797e-16
9.3754e-17
9.62139e-18
9.28544e-19
8.43597e-20
7.21716e-21
5.81896e-22
4.42525e-23
3.17728e-24
2.15529e-25
1.3821e-26
8.31019e-28
3.62079e-05
0.000160729
0.000378261
0.000736802
0.00131213
0.00222202
0.00361614
0.00539508
0.00749831
0.00958771
0.0110444
0.0114035
0.0108511
0.00948916
0.00744638
0.00523744
0.00333525
0.00195743
0.00105689
0.000519517
0.000235241
9.71202e-05
3.65631e-05
1.2565e-05
3.96613e-06
1.15346e-06
3.09868e-07
7.70801e-08
1.77767e-08
3.8056e-09
7.5729e-10
1.40271e-10
2.42182e-11
3.90141e-12
5.87187e-13
8.26396e-14
1.08886e-14
1.34516e-15
1.55845e-16
1.69515e-17
1.7324e-18
1.66488e-19
1.50677e-20
1.28452e-21
1.03218e-22
7.82661e-24
5.60519e-25
3.7932e-26
2.428e-27
1.45464e-28
1.05344e-05
6.42972e-05
0.00016002
0.000286485
0.000438788
0.000616293
0.000822232
0.00104917
0.00128819
0.00148666
0.00158774
0.00157967
0.00147222
0.00127593
0.00102261
0.000749787
0.000503601
0.00030754
0.000169422
8.36234e-05
3.65918e-05
1.46124e-05
5.33465e-06
1.78563e-06
5.49624e-07
1.56128e-07
4.09992e-08
9.97538e-09
2.25309e-09
4.72888e-10
9.23641e-11
1.68049e-11
2.85009e-12
4.51358e-13
6.68469e-14
9.26915e-15
1.20416e-15
1.46753e-16
1.67911e-17
1.80482e-18
1.82408e-19
1.73484e-20
1.55424e-21
1.31248e-22
1.0456e-23
7.865e-25
5.58854e-26
3.75352e-27
2.38504e-28
1.41091e-29
3.40149e-06
5.27524e-05
0.000101096
0.000143645
0.000177656
0.000201942
0.000224029
0.000242058
0.000253928
0.000258326
0.00025345
0.000238339
0.00021248
0.000177514
0.000138015
9.90897e-05
6.51547e-05
3.90036e-05
2.11491e-05
1.03272e-05
4.52236e-06
1.79568e-06
6.51239e-07
2.16927e-07
6.6636e-08
1.89332e-08
4.98957e-09
1.22223e-09
2.80486e-10
5.8955e-11
1.09443e-11
1.80726e-12
2.79789e-13
4.25629e-14
6.27071e-15
8.48257e-16
1.01968e-16
1.12704e-17
1.22855e-18
1.32601e-19
1.32473e-20
1.15821e-21
9.23108e-23
7.48039e-24
6.20574e-25
4.69037e-26
3.04608e-27
1.93069e-28
1.18056e-29
6.7004e-31
)
;

boundaryField
{
    AXIS
    {
        type            empty;
    }
    OUTLET
    {
        type            zeroGradient;
    }
    COFLOW
    {
        type            calculated;
        value           uniform 0;
    }
    PILOT
    {
        type            calculated;
        value           uniform 0;
    }
    FUEL
    {
        type            calculated;
        value           uniform 0;
    }
    WALL
    {
        type            zeroGradient;
    }
    front
    {
        type            wedge;
    }
    back
    {
        type            wedge;
    }
}


// ************************************************************************* //
