/*--------------------------------*- C++ -*----------------------------------*\
| =========                 |                                                 |
| \\      /  F ield         | OpenFOAM: The Open Source CFD Toolbox           |
|  \\    /   O peration     | Version:  2.4.x                                 |
|   \\  /    A nd           | Web:      www.OpenFOAM.org                      |
|    \\/     M anipulation  |                                                 |
\*---------------------------------------------------------------------------*/
FoamFile
{
    version     2.0;
    format      ascii;
    class       volScalarField;
    location    "0.02";
    object      epsilon;
}
// * * * * * * * * * * * * * * * * * * * * * * * * * * * * * * * * * * * * * //

dimensions      [0 2 -3 0 0 0 0];

internalField   nonuniform List<scalar> 
1250
(
76.1527
135.32
195.588
281.435
390.882
517.72
645.392
776.854
885.067
987.925
1089.3
1202.72
1352.95
1718.77
2831.7
4466.5
5173.96
4977.22
4172.37
2963.03
1900.09
1088.3
529.686
213.092
80.735
38.639
27.2872
24.4448
23.7514
23.5715
23.5214
23.5095
23.5056
23.4986
23.4964
23.5001
23.4958
23.4901
23.4931
23.4899
23.4883
23.4905
23.4903
23.4866
23.4746
23.4683
23.4702
23.4644
23.4544
23.454
80.1567
145.688
220.545
327.002
457.632
601.675
743.44
871.37
977.153
1070.01
1166.03
1263.4
1407.1
1787.39
2890.7
4485.32
5161.47
4957.77
4145.1
2943.7
1887.71
1080.95
525.714
211.364
80.1614
38.4776
27.2424
24.4295
23.743
23.5647
23.5149
23.5032
23.4996
23.4925
23.4895
23.4928
23.4883
23.4823
23.485
23.4818
23.4803
23.483
23.4823
23.4768
23.4642
23.459
23.4611
23.4569
23.4499
23.4501
88.0393
176.521
300.596
469.356
658.191
839.716
992.666
1111.69
1199.62
1266.9
1332.38
1402.42
1530.67
1907.03
3015.36
4527.47
5131.33
4911.47
4081.41
2898.71
1859.02
1063.96
516.512
207.433
78.8649
38.1183
27.146
24.399
23.7281
23.5533
23.5046
23.4933
23.49
23.4827
23.4787
23.4816
23.4768
23.4703
23.4724
23.4694
23.4682
23.471
23.4695
23.4622
23.4497
23.4455
23.4476
23.4437
23.4387
23.4396
104.936
272.022
544.955
870.239
1151.74
1358.56
1489.41
1564.04
1592.59
1596.51
1601.82
1627.01
1722.52
2095.79
3206.3
4588.28
5084.04
4838.85
3983.59
2829.54
1814.8
1037.59
502.154
201.256
76.819
37.5564
26.9995
24.3563
23.7098
23.5408
23.4939
23.4834
23.4803
23.4727
23.4678
23.4702
23.4654
23.4585
23.4599
23.4576
23.457
23.4594
23.4571
23.4481
23.436
23.4318
23.4335
23.4301
23.427
23.4286
200.386
697.988
1381.11
1960.19
2245.76
2350.92
2335.05
2273.2
2165.74
2054.11
1953.88
1914.67
1976.43
2346.36
3438.89
4645.7
5012.86
4734.91
3854.28
2737.67
1755.88
1002.31
482.88
192.983
74.0898
36.8112
26.8072
24.3019
23.6879
23.5266
23.4821
23.4727
23.4698
23.4619
23.456
23.458
23.4534
23.4462
23.4469
23.446
23.4458
23.4474
23.4445
23.4337
23.4222
23.4175
23.4186
23.4162
23.4146
23.4164
1116.08
2839.28
3952.67
4057.74
3966.74
3740.36
3424.96
3120.88
2835.28
2575.79
2346.56
2226.59
2274.29
2645.98
3683
4679.67
4912.76
4594.1
3698.72
2625.57
1683.75
958.94
459.313
182.913
70.7961
35.9168
26.5772
24.2371
23.6619
23.5099
23.4684
23.4604
23.4578
23.4496
23.4425
23.4439
23.4398
23.4327
23.4327
23.4327
23.433
23.4343
23.4308
23.4182
23.4077
23.4022
23.4026
23.4015
23.4011
23.4027
1209.52
4149.19
5402.59
5414.19
5191
4807.29
4299.41
3830.76
3406.26
3027.99
2700.87
2530.95
2580.33
2953.38
3895.66
4670.51
4779.72
4417.62
3518.82
2496.17
1600.37
908.835
432.249
171.42
67.0816
34.9131
26.3185
24.1633
23.6316
23.49
23.4519
23.4455
23.4429
23.4347
23.426
23.4264
23.4233
23.4186
23.4178
23.4178
23.4191
23.4196
23.4149
23.4008
23.3911
23.3849
23.3847
23.3847
23.3849
23.3864
498.255
2391.48
4439.51
5132.76
5157.65
4965.28
4561
4116.19
3683.1
3282.16
2939.11
2780.36
2853.06
3230.89
4040.87
4606.35
4614.37
4206.15
3318.95
2353.29
1508.08
853.265
402.427
158.942
63.1027
33.8422
26.0407
24.082
23.5964
23.4657
23.4315
23.4265
23.424
23.4158
23.4046
23.4036
23.4025
23.4019
23.4
23.3984
23.4016
23.4016
23.3953
23.3801
23.371
23.365
23.3649
23.3649
23.3651
23.3667
248.904
1022.41
2501.7
3658.16
4190.35
4310.42
4200.14
3931.27
3612.42
3285.62
3020.47
2936.01
3044.63
3439.73
4092.39
4482.78
4416.83
3960.5
3106.18
2200.74
1409.45
793.768
370.795
145.945
59.0181
32.7459
25.753
23.9942
23.5554
23.4359
23.4054
23.4018
23.3993
23.3914
23.3793
23.3785
23.3786
23.3789
23.3769
23.3742
23.3784
23.378
23.3704
23.3546
23.3457
23.3399
23.3398
23.3398
23.3401
23.3418
144.038
373.982
1010.41
1953.31
2714.29
3156.56
3349.71
3346.48
3263.46
3101.68
2967.44
2978.06
3142.11
3546.39
4053.42
4298.54
4182.22
3693.37
2884.77
2042.81
1307.15
731.974
338.351
132.895
54.9801
31.6636
25.464
23.9009
23.5077
23.3993
23.372
23.3693
23.3671
23.3601
23.3478
23.3466
23.3468
23.3475
23.3459
23.3429
23.3473
23.3467
23.3384
23.3222
23.3133
23.3077
23.3075
23.3076
23.3079
23.3096
32.4769
120.087
352.756
843.689
1470.59
2011.61
2390.84
2610.46
2722.15
2756.61
2797.45
2914.66
3150.83
3537.21
3924.11
4061.34
3907.89
3405.6
2652.8
1878.49
1200.56
667.544
305.075
119.825
50.9996
30.5959
25.1722
23.7998
23.4509
23.3534
23.3287
23.3263
23.325
23.3196
23.3076
23.3053
23.3056
23.3064
23.3051
23.3022
23.3064
23.3055
23.2969
23.2803
23.2711
23.266
23.2659
23.2658
23.2661
23.2678
18.5249
53.0019
143.82
357.463
730.429
1167.35
1574.53
1905.04
2159.04
2353.82
2538.57
2765.53
3062.52
3415.21
3702.63
3761.46
3582.03
3086.03
2399.83
1699.65
1084.14
597.167
269.421
106.177
46.9059
29.4958
24.8648
23.6871
23.3834
23.2974
23.2747
23.2723
23.2722
23.2686
23.2574
23.2538
23.254
23.2548
23.2537
23.2509
23.2549
23.2538
23.2449
23.228
23.2182
23.2136
23.2134
23.2134
23.2138
23.2155
15.0944
34.6542
84.0362
197.794
413.615
706.174
1038.7
1371.1
1680.6
1964.21
2242.33
2538.92
2858.13
3173.48
3387.93
3393.3
3199.08
2729.95
2121.08
1502.37
954.54
518.684
230.58
91.7183
42.6324
28.3462
24.5399
23.5649
23.3084
23.2347
23.215
23.2105
23.2081
23.2067
23.199
23.1951
23.1953
23.1959
23.195
23.1923
23.1961
23.1949
23.1858
23.1685
23.158
23.1547
23.1552
23.1548
23.1549
23.1562
14.0034
29.0218
66.8664
151.488
300.134
504.361
754.619
1035.61
1332.13
1634.8
1944.1
2260.79
2571.75
2839.87
2991.21
2967.58
2769.65
2346.91
1822.18
1288.99
812.478
432.949
189.347
76.8528
38.3046
27.1814
24.2093
23.4398
23.2315
23.1707
23.1553
23.1504
23.1454
23.1429
23.1363
23.1343
23.1344
23.1349
23.134
23.1313
23.135
23.1337
23.1247
23.1068
23.0956
23.0937
23.0955
23.0946
23.0943
23.0954
13.7116
27.6083
62.784
139.713
261.585
420.522
614.954
842.145
1096.71
1372.53
1662.6
1955.03
2227.65
2440.96
2540.85
2502.66
2313.16
1950.61
1511.37
1064.25
661.304
342.687
147.519
62.3482
34.1456
26.0613
23.8906
23.3192
23.1578
23.1102
23.0996
23.0954
23.0875
23.0819
23.0764
23.0763
23.0764
23.0769
23.0746
23.0716
23.076
23.0748
23.0659
23.0475
23.0359
23.0352
23.0377
23.035
23.0344
23.0366
13.6726
27.4368
62.2388
136.45
245.093
378.861
537.058
720.905
929.447
1159.05
1401.62
1642.26
1857.87
2014.18
2072.77
2027.38
1855.3
1556.14
1199.48
835.416
505.788
252.591
108.051
49.2728
30.442
25.0615
23.6045
23.2104
23.0916
23.0569
23.0514
23.0476
23.0368
23.0284
23.0239
23.0241
23.0239
23.0245
23.021
23.0178
23.0224
23.0214
23.0128
22.9942
22.9832
22.983
22.9846
22.9818
22.9811
22.9833
13.6149
27.0927
60.7769
130.949
229.115
344.93
476.772
625.582
791.342
971.235
1157.97
1338.23
1492.51
1595.18
1620.78
1571.16
1419.42
1180.27
898.982
611.514
354.42
169.858
74.5432
38.6647
27.4595
24.2522
23.3695
23.119
23.0357
23.0124
23.0109
23.0068
22.9939
22.9848
22.9798
22.9798
22.9812
22.9801
22.9743
22.9717
22.9764
22.9756
22.9679
22.9495
22.9387
22.9377
22.9381
22.9367
22.9363
22.9371
13.3726
25.7176
55.7984
117.862
203.989
303.423
412.99
532.079
660.058
794.108
928.154
1051.71
1150.6
1207.63
1209.08
1155.66
1024.49
837.888
621.617
404.496
220.529
103.219
49.9036
31.137
25.3456
23.6722
23.1954
23.0479
22.9912
22.9763
22.9768
22.9725
22.9604
22.9535
22.9481
22.9439
22.9441
22.9436
22.938
22.9346
22.9385
22.9381
22.9321
22.9152
22.908
22.9097
22.9056
22.9005
22.9005
22.9005
12.8725
23.0058
46.5264
94.9574
165.139
247.006
335.54
428.603
524.303
619.555
709.474
786.502
841.403
863.457
849.712
791.625
681.899
539.009
379.974
229.862
118.704
58.9137
34.7893
26.6032
24.0669
23.313
23.0808
22.9977
22.959
22.9493
22.9508
22.9469
22.9391
22.9364
22.9295
22.925
22.9266
22.9211
22.9083
22.9071
22.9079
22.907
22.9046
22.8924
22.8856
22.8885
22.8843
22.8764
22.8764
22.8765
12.1602
19.3503
34.6403
65.2677
114.063
174.846
241.709
310.979
379.206
443.16
498.837
541.22
564.837
564.966
541.053
482.328
396.156
293.368
190.544
108.201
58.5977
35.8815
27.2752
24.3589
23.4277
23.127
23.0186
22.9713
22.9444
22.938
22.9392
22.9388
22.939
22.9354
22.9233
22.9184
22.9184
22.9101
22.9015
22.9031
22.9008
22.8925
22.8862
22.8775
22.8763
22.8804
22.877
22.87
22.8707
22.8692
11.4198
15.8357
23.9807
38.606
63.113
98.0451
140.141
185.082
228.783
267.528
297.838
316.511
320.751
311.425
282.484
235.792
179.629
123.339
77.5515
48.1694
33.1776
26.7759
24.3537
23.4984
23.1937
23.0713
23.015
22.987
22.9701
22.9621
22.962
22.9622
22.9637
22.9628
22.9575
22.9472
22.9364
22.9309
22.9265
22.924
22.926
22.9224
22.9164
22.9091
22.9047
22.9066
22.9052
22.9016
22.8955
22.8904
10.8738
13.4258
17.3944
23.4179
32.4604
45.4177
62.3675
81.9266
101.711
118.855
130.737
135.559
133.977
124.909
107.102
85.711
64.5987
47.2612
35.466
28.776
25.537
24.1444
23.5807
23.3447
23.2331
23.1701
23.1285
23.106
23.1012
23.1027
23.0975
23.0908
23.0913
23.0911
23.091
23.0842
23.0696
23.0653
23.0663
23.0631
23.055
23.0475
23.0479
23.049
23.0467
23.0385
23.0326
23.0355
23.0347
23.03
10.8254
12.9084
15.3475
18.1997
21.6301
25.8721
31.0958
35.8883
40.7952
45.3295
48.1125
48.575
47.2444
44.237
39.9087
35.2535
31.1741
28.1992
26.248
24.8852
24.2784
23.9979
23.8674
23.7531
23.6841
23.6451
23.6241
23.6222
23.6253
23.6244
23.6164
23.605
23.6049
23.605
23.6051
23.5982
23.5819
23.579
23.5801
23.5801
23.5769
23.5733
23.5766
23.5756
23.5682
23.5576
23.5576
23.5579
23.5596
23.5582
14.0994
19.1335
21.9302
23.4261
24.3355
25.0702
25.8982
26.6614
27.6813
28.5314
28.9615
29.0172
28.7836
28.3318
27.7691
27.1078
26.6207
26.2912
26.0329
25.8545
25.7402
25.6594
25.6021
25.5546
25.5161
25.5082
25.5093
25.5108
25.5104
25.5015
25.4963
25.4965
25.4966
25.4982
25.5001
25.4991
25.4897
25.4868
25.488
25.4889
25.4905
25.4918
25.4936
25.4951
25.4969
25.4985
25.5006
25.5027
25.5048
25.5067
148.947
119.72
90.3172
70.6094
57.0901
46.6389
42.2136
39.5868
37.9076
36.9252
36.4186
36.1971
36.119
36.1032
36.1163
36.1418
36.1655
36.1739
36.1523
36.0805
35.9649
35.8237
35.6852
35.5685
35.4799
35.419
35.3828
35.3652
35.3588
35.3567
35.3539
35.3517
35.3529
35.3585
35.3688
35.3843
35.4048
35.4278
35.4516
35.4751
35.498
35.5199
35.5406
35.5621
35.5828
35.6005
35.6147
35.6267
35.6382
35.6438
)
;

boundaryField
{
    AXIS
    {
        type            empty;
    }
    OUTLET
    {
        type            zeroGradient;
    }
    COFLOW
    {
        type            fixedValue;
        value           uniform 10;
    }
    PILOT
    {
        type            fixedValue;
        value           uniform 10;
    }
    FUEL
    {
        type            fixedValue;
        value           uniform 50;
    }
    WALL
    {
        type            compressible::epsilonWallFunction;
        Cmu             0.09;
        kappa           0.41;
        E               9.8;
        value           nonuniform List<scalar> 
50
(
148.947
119.72
90.3172
70.6094
57.0901
46.6389
42.2136
39.5868
37.9076
36.9252
36.4186
36.1971
36.119
36.1032
36.1163
36.1418
36.1655
36.1739
36.1523
36.0805
35.9649
35.8237
35.6852
35.5685
35.4799
35.419
35.3828
35.3652
35.3588
35.3567
35.3539
35.3517
35.3529
35.3585
35.3688
35.3843
35.4048
35.4278
35.4516
35.4751
35.498
35.5199
35.5406
35.5621
35.5828
35.6005
35.6147
35.6267
35.6382
35.6438
)
;
    }
    front
    {
        type            wedge;
    }
    back
    {
        type            wedge;
    }
}


// ************************************************************************* //
