/*--------------------------------*- C++ -*----------------------------------*\
| =========                 |                                                 |
| \\      /  F ield         | OpenFOAM: The Open Source CFD Toolbox           |
|  \\    /   O peration     | Version:  2.4.x                                 |
|   \\  /    A nd           | Web:      www.OpenFOAM.org                      |
|    \\/     M anipulation  |                                                 |
\*---------------------------------------------------------------------------*/
FoamFile
{
    version     2.0;
    format      ascii;
    class       volScalarField;
    location    "0.02";
    object      k;
}
// * * * * * * * * * * * * * * * * * * * * * * * * * * * * * * * * * * * * * //

dimensions      [0 2 -2 0 0 0 0];

internalField   nonuniform List<scalar> 
1250
(
5.55611
5.93181
5.89934
5.98968
6.23901
6.5916
6.92396
7.25795
7.47318
7.69924
7.94003
8.32828
9.06954
11.0752
16.7851
23.5449
26.4839
25.7611
22.5951
17.4857
12.458
8.08493
4.59356
2.28265
1.19313
0.82309
0.71852
0.690229
0.682295
0.67975
0.678702
0.678211
0.678114
0.678134
0.678138
0.678049
0.677821
0.677811
0.677857
0.67782
0.677796
0.677806
0.67781
0.677874
0.67784
0.677621
0.677423
0.677322
0.677284
0.677283
5.60919
5.92946
5.95457
6.1213
6.45086
6.84582
7.21449
7.50688
7.70843
7.90128
8.13679
8.48788
9.21988
11.3183
17.0172
23.6185
26.4382
25.6844
22.4891
17.4018
12.3976
8.04377
4.5675
2.26962
1.18843
0.821699
0.718084
0.690038
0.682165
0.679635
0.67859
0.6781
0.678006
0.678035
0.678032
0.677928
0.677698
0.677689
0.677732
0.677692
0.677659
0.677664
0.677667
0.67773
0.67769
0.677463
0.677276
0.677206
0.677199
0.677201
5.61194
5.91275
6.14137
6.55249
7.06835
7.53486
7.88654
8.11469
8.25543
8.37604
8.54429
8.85248
9.57251
11.7489
17.5177
23.7831
26.329
25.5075
22.2402
17.2072
12.2575
7.94844
4.50698
2.23987
1.17778
0.818599
0.717151
0.68966
0.681928
0.679436
0.678403
0.677917
0.677829
0.677872
0.677863
0.677736
0.677508
0.677501
0.677538
0.677494
0.677446
0.677447
0.67745
0.677511
0.677465
0.677235
0.677061
0.677009
0.677006
0.677004
5.42811
6.0397
6.80855
7.71937
8.45699
8.89083
9.13009
9.2036
9.18478
9.15284
9.21057
9.43571
10.1602
12.4551
18.2741
24.0149
26.155
25.2304
21.8552
16.9065
12.0409
7.79989
4.41221
2.1931
1.16102
0.813772
0.715753
0.689142
0.681635
0.679205
0.678191
0.677716
0.677635
0.677684
0.677672
0.677531
0.677311
0.677306
0.677338
0.677295
0.677231
0.67723
0.677235
0.677286
0.67723
0.676994
0.676833
0.676794
0.676792
0.67679
5.58755
7.06767
9.10449
10.5673
11.1203
11.1659
11.0453
10.7706
10.4503
10.1599
10.0916
10.226
10.9611
13.4505
19.1881
24.2346
25.895
24.8355
21.3426
16.5049
11.7507
7.6002
4.28449
2.13034
1.13865
0.807365
0.713919
0.688484
0.681277
0.67893
0.677944
0.677484
0.67741
0.677463
0.677448
0.677298
0.677087
0.677084
0.677114
0.677078
0.676996
0.676991
0.677003
0.67704
0.67697
0.676727
0.676581
0.676553
0.676551
0.67655
9.02955
12.9445
14.9771
14.9074
14.5806
13.9041
13.1779
12.4841
11.8504
11.3003
11.0664
11.1672
11.967
14.7365
20.1239
24.3702
25.5232
24.3036
20.7177
16.0105
11.3927
7.3529
4.12747
2.05359
1.11157
0.799651
0.711712
0.687692
0.680847
0.6786
0.677648
0.677209
0.677145
0.6772
0.677182
0.677023
0.676825
0.676823
0.676848
0.676827
0.676733
0.676714
0.676741
0.676763
0.676675
0.676425
0.676295
0.676275
0.676274
0.676274
7.16141
14.7254
17.0969
17.042
16.6124
15.7002
14.7196
13.8189
13.0085
12.3267
12.0379
12.1743
13.1457
16.1403
20.9275
24.3561
25.0238
23.6306
19.9921
15.4334
10.9744
7.06477
3.94591
1.96544
1.08091
0.790945
0.709201
0.686774
0.680337
0.678204
0.677291
0.676878
0.676826
0.67688
0.676858
0.676691
0.676506
0.676503
0.676517
0.676514
0.676425
0.676383
0.676424
0.676436
0.676328
0.676074
0.675958
0.675946
0.675945
0.675945
3.16704
9.95565
14.419
15.9093
16.1052
15.7332
15.0508
14.3119
13.6027
13.0298
12.8644
13.1319
14.378
17.46
21.5063
24.1502
24.3956
22.8225
19.1738
14.7869
10.5052
6.74134
3.74362
1.86898
1.0479
0.781584
0.706461
0.685737
0.679737
0.677726
0.676855
0.676474
0.676435
0.676485
0.676458
0.67628
0.67611
0.676106
0.676111
0.676125
0.676045
0.675981
0.67603
0.676036
0.675912
0.675658
0.675552
0.675544
0.675544
0.675546
2.2172
5.51287
9.44999
12.2112
13.6534
14.1696
14.1326
13.8972
13.5323
13.3095
13.4011
13.9467
15.5071
18.4842
21.7813
23.7372
23.6411
21.8797
18.2799
14.0844
9.99571
6.38996
3.52621
1.76759
1.01379
0.771905
0.703564
0.684587
0.679035
0.677148
0.67632
0.675981
0.675955
0.675994
0.675959
0.67577
0.675617
0.675613
0.675618
0.675645
0.67557
0.675486
0.675538
0.67554
0.675405
0.675151
0.675056
0.675051
0.67505
0.675054
1.99808
2.8227
4.98312
7.79672
10.0169
11.4329
12.2207
12.6836
12.9215
13.1588
13.6286
14.5698
16.3838
19.0796
21.7189
23.087
22.7491
20.8245
17.3345
13.3435
9.45792
6.01888
3.29991
1.66478
0.979834
0.762232
0.700579
0.683325
0.678216
0.676451
0.675666
0.675377
0.675361
0.675382
0.675337
0.675138
0.675003
0.675
0.675004
0.675043
0.674972
0.674871
0.674922
0.674922
0.674781
0.674529
0.674439
0.674434
0.674433
0.67444
1.15789
1.5922
2.57238
4.4374
6.65064
8.54331
9.97224
11.0608
11.904
12.696
13.61
14.9202
16.8479
19.2347
21.3271
22.217
21.6902
19.6609
16.3227
12.5562
8.88651
5.62454
3.06394
1.56067
0.946064
0.752541
0.697472
0.681915
0.677244
0.6756
0.674856
0.674614
0.674608
0.67461
0.674555
0.674348
0.674231
0.674229
0.674233
0.67428
0.674213
0.674097
0.674145
0.674144
0.674003
0.67375
0.673662
0.673658
0.673657
0.673666
1.04919
1.23323
1.66806
2.68218
4.34401
6.18433
7.8911
9.3999
10.734
12.0032
13.3517
14.933
16.8711
18.9608
20.5729
21.0799
20.4034
18.3331
15.1889
11.6761
8.24639
5.18305
2.80559
1.45026
0.910853
0.742346
0.694092
0.680301
0.676086
0.674568
0.673869
0.673667
0.673682
0.673667
0.67359
0.673384
0.673281
0.673279
0.673283
0.673334
0.673272
0.673145
0.673184
0.673183
0.67305
0.672795
0.672706
0.672702
0.672702
0.672712
1.0253
1.12798
1.38392
2.01645
3.21182
4.73025
6.37482
8.02082
9.61818
11.1913
12.8179
14.5814
16.4473
18.2091
19.4254
19.6269
18.8437
16.7992
13.8934
10.6706
7.50928
4.67379
2.51561
1.33059
0.873297
0.731394
0.690399
0.678504
0.674786
0.673405
0.672751
0.672575
0.672602
0.672579
0.672492
0.672304
0.6722
0.672198
0.672203
0.672251
0.672195
0.67206
0.672086
0.672088
0.671967
0.671711
0.671616
0.671612
0.671612
0.671622
1.01819
1.09432
1.30099
1.81142
2.76524
4.02202
5.47414
7.04092
8.6698
10.3409
12.0607
13.8225
15.5386
17.0011
17.8787
17.869
17.0201
15.0688
12.4399
9.53456
6.66626
4.09362
2.19608
1.20385
0.834132
0.719896
0.686495
0.67661
0.673424
0.672193
0.671585
0.671425
0.671455
0.671421
0.67134
0.671198
0.67107
0.671062
0.671069
0.671106
0.671059
0.670919
0.670927
0.670934
0.670833
0.670577
0.670471
0.670467
0.670467
0.670477
1.01673
1.08785
1.28668
1.76832
2.61039
3.6983
4.96849
6.37769
7.89262
9.48549
11.1224
12.7418
14.2299
15.3912
15.9824
15.8473
14.9635
13.1726
10.8443
8.27336
5.7228
3.4517
1.85729
1.07564
0.79504
0.70832
0.682547
0.674713
0.672083
0.67101
0.670451
0.670294
0.670316
0.67028
0.670234
0.670151
0.66998
0.669937
0.669944
0.669974
0.669937
0.669786
0.669782
0.669801
0.669721
0.669471
0.669348
0.669343
0.669344
0.669353
1.01719
1.08972
1.29201
1.76604
2.54232
3.51129
4.62471
5.86078
7.19709
8.60485
10.0361
11.4121
12.6182
13.4883
13.8447
13.6275
12.75
11.1592
9.13663
6.90659
4.69024
2.77115
1.52066
0.954888
0.758483
0.697353
0.678777
0.672915
0.670832
0.66992
0.669412
0.66924
0.669236
0.669238
0.669268
0.669221
0.669028
0.668899
0.668901
0.66893
0.668886
0.668715
0.668705
0.668747
0.668688
0.668455
0.668308
0.668302
0.668303
0.66831
1.01765
1.09046
1.28951
1.74322
2.45541
3.31953
4.2915
5.35233
6.48432
7.65895
8.82803
9.91668
10.8244
11.4231
11.5876
11.311
10.4655
9.08465
7.36152
5.46733
3.60736
2.0995
1.21747
0.851484
0.727094
0.687753
0.675413
0.6713
0.669719
0.668962
0.668507
0.668333
0.66833
0.668335
0.668372
0.668359
0.668203
0.667971
0.667959
0.667999
0.667937
0.667751
0.667744
0.667802
0.667766
0.667559
0.667387
0.667379
0.667384
0.667392
1.0169
1.08428
1.26291
1.66488
2.2917
3.04596
3.87955
4.76764
5.69172
6.62406
7.52198
8.32232
8.94726
9.30525
9.32019
8.99286
8.19526
7.01669
5.57335
4.01738
2.56127
1.51206
0.97874
0.772784
0.702844
0.680113
0.672623
0.669909
0.66875
0.668133
0.667733
0.667559
0.667553
0.667553
0.667554
0.667562
0.667475
0.667195
0.667112
0.66714
0.667068
0.666911
0.666912
0.666968
0.66695
0.666765
0.666601
0.666595
0.666596
0.666609
1.01418
1.06857
1.20591
1.51312
2.01856
2.64345
3.33244
4.0529
4.77991
5.48537
6.13355
6.67551
7.05609
7.21296
7.12425
6.74262
6.012
5.02011
3.85302
2.6603
1.67669
1.08396
0.819603
0.720652
0.68631
0.674613
0.67042
0.668697
0.667857
0.667358
0.667014
0.666857
0.666855
0.66687
0.666848
0.666804
0.666725
0.666477
0.666296
0.666228
0.666162
0.666113
0.666122
0.666167
0.666159
0.665996
0.665863
0.665859
0.66586
0.665882
1.00957
1.04488
1.12814
1.31187
1.64822
2.10494
2.63026
3.18228
3.72491
4.22893
4.66314
4.99204
5.1794
5.1904
5.02566
4.61101
3.97731
3.18357
2.33384
1.58755
1.08918
0.836956
0.731188
0.690965
0.676273
0.670782
0.668504
0.667397
0.666777
0.666372
0.666092
0.665976
0.665974
0.665978
0.665998
0.665993
0.665869
0.665553
0.665365
0.665265
0.665198
0.665145
0.665136
0.665162
0.665135
0.66501
0.66493
0.664926
0.664924
0.664952
1.00369
1.01931
1.05373
1.12751
1.27499
1.51641
1.83567
2.19469
2.55326
2.87627
3.13321
3.29755
3.34526
3.27991
3.06379
2.69346
2.22399
1.72358
1.28476
0.978001
0.806171
0.724724
0.689904
0.675721
0.669858
0.667228
0.665891
0.665126
0.664652
0.66433
0.664135
0.664111
0.664111
0.664111
0.664157
0.664135
0.66397
0.663643
0.663456
0.663364
0.663306
0.663251
0.663191
0.663163
0.663156
0.663078
0.662974
0.662967
0.662963
0.66296
0.998267
0.997035
1.00003
1.01184
1.04116
1.10057
1.19835
1.33125
1.48123
1.6217
1.72611
1.77369
1.76284
1.6875
1.53228
1.33615
1.13268
0.955439
0.825784
0.745311
0.701675
0.680082
0.669756
0.664654
0.661936
0.660411
0.659533
0.659011
0.65867
0.65842
0.658358
0.658376
0.658293
0.65823
0.658289
0.658286
0.658167
0.657897
0.657696
0.65766
0.657689
0.657654
0.657543
0.657514
0.657505
0.657385
0.65723
0.657253
0.657229
0.657118
0.993587
0.978577
0.961408
0.94333
0.926142
0.912518
0.90594
0.908985
0.91998
0.934824
0.944311
0.943318
0.92858
0.893021
0.844427
0.792546
0.745414
0.708209
0.682436
0.666174
0.656271
0.650163
0.646228
0.643633
0.641902
0.640816
0.64022
0.639921
0.639752
0.639586
0.639342
0.63907
0.63901
0.639009
0.63901
0.639037
0.638952
0.638841
0.638848
0.63876
0.638646
0.638687
0.638612
0.638462
0.638355
0.638193
0.638179
0.638236
0.638192
0.638038
0.989891
0.957299
0.91362
0.868385
0.823219
0.781099
0.744476
0.714573
0.691565
0.674999
0.663375
0.654426
0.645777
0.636093
0.625949
0.616344
0.607994
0.60123
0.595942
0.591834
0.588533
0.585827
0.583594
0.581804
0.580452
0.579564
0.579221
0.579173
0.579105
0.57892
0.578582
0.578159
0.577987
0.577988
0.577999
0.577949
0.577935
0.577939
0.577938
0.577952
0.577966
0.578054
0.578027
0.577983
0.577965
0.577841
0.577714
0.577706
0.577795
0.577779
0.975909
0.843665
0.699151
0.593322
0.514925
0.449901
0.420853
0.403156
0.391625
0.384792
0.381237
0.379673
0.379117
0.378998
0.379083
0.379256
0.379417
0.379472
0.379319
0.378817
0.378008
0.377017
0.376041
0.375217
0.37459
0.374158
0.373899
0.373773
0.373727
0.37371
0.373689
0.373671
0.373679
0.373716
0.373787
0.373895
0.374038
0.374199
0.374365
0.374529
0.374689
0.374842
0.374986
0.375136
0.375281
0.375404
0.375502
0.375586
0.375666
0.375705
)
;

boundaryField
{
    AXIS
    {
        type            empty;
    }
    OUTLET
    {
        type            zeroGradient;
    }
    COFLOW
    {
        type            fixedValue;
        value           uniform 1;
    }
    PILOT
    {
        type            fixedValue;
        value           uniform 1;
    }
    FUEL
    {
        type            fixedValue;
        value           uniform 5;
    }
    WALL
    {
        type            compressible::kqRWallFunction;
        value           nonuniform List<scalar> 
50
(
0.975909
0.843665
0.699151
0.593322
0.514925
0.449901
0.420853
0.403156
0.391625
0.384792
0.381237
0.379673
0.379117
0.378998
0.379083
0.379256
0.379417
0.379472
0.379319
0.378817
0.378008
0.377017
0.376041
0.375217
0.37459
0.374158
0.373899
0.373773
0.373727
0.37371
0.373689
0.373671
0.373679
0.373716
0.373787
0.373895
0.374038
0.374199
0.374365
0.374529
0.374689
0.374842
0.374986
0.375136
0.375281
0.375404
0.375502
0.375586
0.375666
0.375705
)
;
    }
    front
    {
        type            wedge;
    }
    back
    {
        type            wedge;
    }
}


// ************************************************************************* //
