/*--------------------------------*- C++ -*----------------------------------*\
| =========                 |                                                 |
| \\      /  F ield         | OpenFOAM: The Open Source CFD Toolbox           |
|  \\    /   O peration     | Version:  2.4.x                                 |
|   \\  /    A nd           | Web:      www.OpenFOAM.org                      |
|    \\/     M anipulation  |                                                 |
\*---------------------------------------------------------------------------*/
FoamFile
{
    version     2.0;
    format      ascii;
    class       volScalarField;
    location    "0.02";
    object      rho;
}
// * * * * * * * * * * * * * * * * * * * * * * * * * * * * * * * * * * * * * //

dimensions      [1 -3 0 0 0 0 0];

internalField   nonuniform List<scalar> 
1250
(
1.00186
0.891964
0.799922
0.728176
0.669593
0.621473
0.580998
0.546388
0.513558
0.479171
0.447265
0.418697
0.382387
0.340645
0.298763
0.290285
0.31101
0.342317
0.399606
0.480232
0.586541
0.720279
0.870298
1.02854
1.12677
1.16466
1.17583
1.1788
1.17955
1.17973
1.17978
1.1798
1.17982
1.17983
1.17985
1.17987
1.17989
1.17991
1.17993
1.17995
1.17998
1.18
1.18003
1.18005
1.18008
1.18011
1.18014
1.18017
1.1802
1.18023
0.99439
0.875257
0.783287
0.712804
0.656264
0.610404
0.572183
0.539511
0.504139
0.471143
0.440474
0.412934
0.378117
0.337302
0.297596
0.290755
0.311357
0.343082
0.400649
0.481389
0.587837
0.721584
0.871492
1.02954
1.1272
1.16478
1.17586
1.17881
1.17955
1.17973
1.17978
1.1798
1.17982
1.17983
1.17985
1.17987
1.17989
1.17991
1.17993
1.17995
1.17998
1.18
1.18003
1.18005
1.18008
1.18011
1.18014
1.18017
1.1802
1.18023
0.971818
0.831487
0.741738
0.676068
0.62601
0.586886
0.551415
0.515611
0.483463
0.45355
0.425701
0.400449
0.369624
0.330202
0.295199
0.292001
0.312093
0.344995
0.403114
0.48416
0.590916
0.724685
0.874314
1.03188
1.12819
1.16508
1.17594
1.17883
1.17955
1.17973
1.17978
1.1798
1.17982
1.17983
1.17985
1.17987
1.17989
1.17991
1.17993
1.17995
1.17998
1.18
1.18003
1.18005
1.18008
1.18011
1.18014
1.18017
1.1802
1.18023
0.909224
0.746875
0.669062
0.62009
0.581226
0.543386
0.510168
0.48056
0.453672
0.428511
0.404779
0.382788
0.357317
0.320578
0.292246
0.293831
0.31358
0.348067
0.407062
0.488561
0.595964
0.729617
0.878805
1.0356
1.12976
1.16554
1.17606
1.17886
1.17956
1.17973
1.17978
1.1798
1.17982
1.17983
1.17985
1.17987
1.17989
1.17991
1.17993
1.17995
1.17998
1.18
1.18003
1.18005
1.18008
1.18011
1.18014
1.18017
1.1802
1.18023
0.724849
0.59826
0.569995
0.537472
0.510093
0.485253
0.461658
0.439376
0.418564
0.399106
0.380251
0.362914
0.339507
0.310064
0.289477
0.295947
0.316252
0.352425
0.412573
0.494561
0.602852
0.736323
0.884906
1.04061
1.13186
1.16616
1.17622
1.1789
1.17957
1.17973
1.17978
1.1798
1.17982
1.17983
1.17985
1.17987
1.17989
1.17991
1.17993
1.17995
1.17998
1.18
1.18003
1.18005
1.18008
1.18011
1.18014
1.18017
1.1802
1.18023
0.337046
0.428946
0.448453
0.444649
0.433967
0.420319
0.405962
0.391211
0.377943
0.365831
0.35278
0.3384
0.321212
0.30003
0.287833
0.298457
0.319175
0.358068
0.419496
0.502112
0.611498
0.744717
0.89337
1.04678
1.1344
1.1669
1.17641
1.17894
1.17958
1.17974
1.17978
1.1798
1.17982
1.17983
1.17985
1.17987
1.17989
1.17991
1.17993
1.17995
1.17998
1.18
1.18003
1.18005
1.18008
1.18011
1.18014
1.18017
1.1802
1.18023
0.218424
0.318625
0.36038
0.372625
0.373246
0.367035
0.35877
0.349761
0.341245
0.33388
0.325886
0.316215
0.305068
0.291656
0.288177
0.301289
0.323575
0.365054
0.428057
0.511272
0.621803
0.755388
0.9045
1.05394
1.13729
1.16773
1.17662
1.17899
1.17959
1.17974
1.17978
1.1798
1.17982
1.17983
1.17985
1.17987
1.17989
1.17991
1.17993
1.17995
1.17998
1.18
1.18003
1.18005
1.18008
1.18011
1.18014
1.18017
1.1802
1.18023
0.188051
0.279579
0.319632
0.33085
0.333163
0.329053
0.323394
0.317448
0.311909
0.307724
0.303917
0.298575
0.292609
0.286507
0.290241
0.304698
0.329468
0.373426
0.437875
0.522033
0.633634
0.767595
0.91713
1.06185
1.14041
1.16863
1.17685
1.17905
1.1796
1.17974
1.17978
1.1798
1.17982
1.17983
1.17985
1.17987
1.17989
1.17991
1.17993
1.17995
1.17998
1.18
1.18003
1.18005
1.18008
1.18011
1.18014
1.18017
1.1802
1.18023
0.19323
0.285995
0.317331
0.317127
0.311796
0.306724
0.300695
0.2957
0.291819
0.289511
0.288211
0.286302
0.284337
0.284952
0.293031
0.309863
0.337103
0.383204
0.448516
0.534096
0.646813
0.781079
0.930951
1.07026
1.14362
1.16954
1.17708
1.1791
1.17962
1.17974
1.17978
1.1798
1.17982
1.17983
1.17985
1.17987
1.17989
1.17991
1.17993
1.17995
1.17998
1.18
1.18003
1.18005
1.18008
1.18011
1.18014
1.18017
1.1802
1.18023
0.263567
0.362543
0.363909
0.331701
0.311908
0.299559
0.290867
0.284664
0.280821
0.279276
0.279255
0.279539
0.281252
0.286297
0.297081
0.315102
0.346261
0.39437
0.460551
0.548017
0.661428
0.795568
0.945614
1.07888
1.14683
1.17044
1.17731
1.17916
1.17963
1.17975
1.17978
1.1798
1.17982
1.17983
1.17985
1.17987
1.17989
1.17991
1.17993
1.17995
1.17998
1.18
1.18003
1.18005
1.18008
1.18011
1.18014
1.18017
1.1802
1.18023
0.756233
0.573339
0.467172
0.381751
0.334684
0.308954
0.293986
0.284877
0.279419
0.27726
0.277528
0.278837
0.282318
0.290193
0.303483
0.323091
0.357143
0.407282
0.474214
0.563688
0.677677
0.811272
0.961229
1.08771
1.15001
1.17133
1.17753
1.17921
1.17964
1.17975
1.17978
1.1798
1.17982
1.17983
1.17985
1.17987
1.17989
1.17991
1.17993
1.17995
1.17998
1.18
1.18003
1.18005
1.18008
1.18011
1.18014
1.18017
1.1802
1.18023
1.01669
0.788501
0.608325
0.467118
0.381848
0.336728
0.311766
0.296083
0.286948
0.282558
0.281851
0.283351
0.287934
0.297695
0.311074
0.334765
0.37113
0.423218
0.491019
0.58226
0.696669
0.829461
0.978896
1.09727
1.15334
1.17225
1.17777
1.17927
1.17965
1.17975
1.17978
1.1798
1.17982
1.17983
1.17985
1.17987
1.17989
1.17991
1.17993
1.17995
1.17998
1.18
1.18003
1.18005
1.18008
1.18011
1.18014
1.18017
1.1802
1.18023
1.10661
0.933117
0.742806
0.564517
0.450148
0.381291
0.34124
0.317092
0.30419
0.296618
0.293803
0.294644
0.299
0.308053
0.32477
0.351078
0.389756
0.442505
0.512584
0.605999
0.72009
0.851752
0.999795
1.108
1.15698
1.17326
1.17803
1.17933
1.17967
1.17975
1.17978
1.1798
1.17982
1.17983
1.17985
1.17987
1.17989
1.17991
1.17993
1.17995
1.17998
1.18
1.18003
1.18005
1.18008
1.18011
1.18014
1.18017
1.1802
1.18023
1.13875
1.01928
0.847296
0.660111
0.522733
0.438618
0.385884
0.351752
0.330204
0.317469
0.311435
0.311054
0.315264
0.326503
0.345313
0.373799
0.414703
0.468352
0.541485
0.636157
0.749946
0.880641
1.02447
1.11992
1.16091
1.17435
1.17831
1.1794
1.17968
1.17976
1.17978
1.1798
1.17982
1.17983
1.17985
1.17987
1.17989
1.17991
1.17993
1.17995
1.17998
1.18
1.18003
1.18005
1.18008
1.18011
1.18014
1.18017
1.1802
1.18023
1.15308
1.06784
0.919076
0.741234
0.597336
0.501442
0.438727
0.397656
0.369515
0.35167
0.342145
0.339747
0.343302
0.354523
0.374784
0.405352
0.44651
0.503347
0.579484
0.675212
0.789125
0.920904
1.05285
1.13265
1.16499
1.1755
1.17861
1.17947
1.1797
1.17976
1.17978
1.1798
1.17982
1.17983
1.17985
1.17987
1.17989
1.17991
1.17993
1.17995
1.17998
1.18
1.18003
1.18005
1.18008
1.18011
1.18014
1.18017
1.1802
1.18023
1.16081
1.09737
0.975872
0.811765
0.670977
0.571559
0.501744
0.453119
0.419703
0.398018
0.385694
0.381076
0.383761
0.394731
0.415125
0.446313
0.490542
0.551106
0.629158
0.724663
0.838418
0.970098
1.08367
1.14535
1.16899
1.17663
1.17891
1.17955
1.17971
1.17976
1.17979
1.1798
1.17982
1.17983
1.17985
1.17987
1.17989
1.17991
1.17993
1.17995
1.17998
1.18
1.18003
1.18005
1.18008
1.18011
1.18014
1.18017
1.1802
1.18023
1.16593
1.11886
1.02476
0.881016
0.751154
0.65194
0.577989
0.523649
0.484658
0.458282
0.442286
0.435692
0.437477
0.448037
0.469905
0.503813
0.551237
0.613947
0.692926
0.788461
0.90117
1.02525
1.11415
1.1569
1.17258
1.17766
1.17919
1.17961
1.17973
1.17977
1.17979
1.1798
1.17982
1.17983
1.17985
1.17987
1.17989
1.17991
1.17993
1.17995
1.17998
1.18
1.18003
1.18005
1.18008
1.18011
1.18014
1.18017
1.1802
1.18023
1.1698
1.13612
1.06761
0.954021
0.837427
0.742207
0.669048
0.612233
0.569574
0.539364
0.520257
0.511577
0.512579
0.523105
0.54643
0.581848
0.630809
0.694376
0.773147
0.868633
0.981284
1.08056
1.14043
1.16623
1.17549
1.1785
1.17941
1.17967
1.17974
1.17977
1.17979
1.1798
1.17982
1.17983
1.17985
1.17987
1.17989
1.17991
1.17993
1.17995
1.17998
1.18
1.18003
1.18005
1.18008
1.18011
1.18014
1.18017
1.1802
1.18023
1.17285
1.15036
1.10586
1.02841
0.930761
0.843539
0.77307
0.716784
0.673869
0.642004
0.62157
0.611716
0.612196
0.622579
0.646119
0.682253
0.730653
0.796187
0.873828
0.969692
1.06167
1.12668
1.15954
1.1728
1.17755
1.1791
1.17957
1.17971
1.17975
1.17977
1.17979
1.1798
1.17982
1.17983
1.17985
1.17987
1.17989
1.17991
1.17993
1.17995
1.17998
1.18
1.18003
1.18005
1.18008
1.18011
1.18014
1.18017
1.1802
1.18023
1.17536
1.16205
1.1376
1.09426
1.03081
0.959684
0.892141
0.840267
0.798359
0.76645
0.745087
0.734706
0.735237
0.746292
0.771134
0.808048
0.856672
0.920248
0.996099
1.06938
1.12503
1.15666
1.17104
1.17674
1.17879
1.17946
1.17967
1.17973
1.17976
1.17977
1.17979
1.1798
1.17982
1.17983
1.17985
1.17987
1.17989
1.17991
1.17993
1.17995
1.17998
1.18
1.18003
1.18005
1.18008
1.18011
1.18014
1.18017
1.1802
1.18023
1.17718
1.17011
1.15867
1.13968
1.10952
1.06863
1.02281
0.978526
0.940202
0.910368
0.890468
0.881839
0.883101
0.894888
0.920478
0.957198
1.00312
1.05379
1.10151
1.13803
1.16036
1.17168
1.1767
1.17869
1.1794
1.17964
1.17971
1.17974
1.17976
1.17977
1.17979
1.1798
1.17982
1.17983
1.17985
1.17987
1.17989
1.17991
1.17993
1.17995
1.17998
1.18
1.18003
1.18005
1.18008
1.18011
1.18014
1.18017
1.1802
1.18023
1.1784
1.17507
1.17033
1.1634
1.15315
1.13851
1.11944
1.09775
1.07648
1.05874
1.04689
1.04242
1.04461
1.05422
1.07197
1.09446
1.1185
1.14037
1.15723
1.16825
1.17447
1.17755
1.1789
1.17944
1.17963
1.1797
1.17973
1.17975
1.17976
1.17977
1.17979
1.1798
1.17982
1.17983
1.17985
1.17987
1.17989
1.17991
1.17993
1.17995
1.17998
1.18
1.18003
1.18005
1.18008
1.18011
1.18014
1.18017
1.1802
1.18023
1.17913
1.17782
1.17607
1.1738
1.17087
1.16711
1.16239
1.15683
1.15106
1.14604
1.14282
1.14213
1.14354
1.14726
1.15308
1.15989
1.16626
1.17143
1.17511
1.1774
1.17866
1.17928
1.17955
1.17966
1.1797
1.17972
1.17974
1.17975
1.17976
1.17977
1.17979
1.1798
1.17982
1.17983
1.17985
1.17987
1.17989
1.17991
1.17993
1.17995
1.17998
1.18
1.18003
1.18005
1.18008
1.18011
1.18014
1.18017
1.1802
1.18023
1.17951
1.17915
1.17863
1.17802
1.17734
1.1766
1.17581
1.17497
1.17418
1.17357
1.1733
1.17341
1.17387
1.17466
1.17566
1.17673
1.1777
1.17848
1.17903
1.17936
1.17955
1.17964
1.17968
1.1797
1.17971
1.17973
1.17974
1.17975
1.17976
1.17977
1.17979
1.1798
1.17982
1.17983
1.17985
1.17987
1.17989
1.17991
1.17993
1.17995
1.17998
1.18
1.18003
1.18005
1.18008
1.18011
1.18014
1.18017
1.1802
1.18023
1.17962
1.17956
1.17948
1.17941
1.17934
1.17927
1.17922
1.17917
1.17914
1.17912
1.17912
1.17916
1.17921
1.17929
1.17937
1.17946
1.17953
1.17959
1.17963
1.17966
1.17968
1.17969
1.1797
1.17971
1.17972
1.17973
1.17974
1.17975
1.17976
1.17977
1.17979
1.1798
1.17982
1.17983
1.17985
1.17987
1.17989
1.17991
1.17993
1.17995
1.17998
1.18
1.18003
1.18005
1.18008
1.18011
1.18014
1.18017
1.1802
1.18023
)
;

boundaryField
{
    AXIS
    {
        type            empty;
    }
    OUTLET
    {
        type            calculated;
        value           uniform 1.18025;
    }
    COFLOW
    {
        type            calculated;
        value           nonuniform List<scalar> 
15
(
1.17965
1.17966
1.17964
1.17964
1.17963
1.17963
1.17963
1.17963
1.17963
1.17963
1.17963
1.17962
1.17962
1.17962
1.17962
)
;
    }
    PILOT
    {
        type            calculated;
        value           nonuniform List<scalar> 5(0.156688 0.156691 0.156705 0.15671 0.156713);
    }
    FUEL
    {
        type            calculated;
        value           nonuniform List<scalar> 5(1.05024 1.05021 1.05034 1.05071 1.05095);
    }
    WALL
    {
        type            calculated;
        value           nonuniform List<scalar> 
50
(
1.17962
1.17956
1.17948
1.17941
1.17934
1.17927
1.17922
1.17917
1.17914
1.17912
1.17912
1.17916
1.17921
1.17929
1.17937
1.17946
1.17953
1.17959
1.17963
1.17966
1.17968
1.17969
1.1797
1.17971
1.17972
1.17973
1.17974
1.17975
1.17976
1.17977
1.17979
1.1798
1.17982
1.17983
1.17985
1.17987
1.17989
1.17991
1.17993
1.17995
1.17998
1.18
1.18003
1.18005
1.18008
1.18011
1.18014
1.18017
1.1802
1.18023
)
;
    }
    front
    {
        type            wedge;
    }
    back
    {
        type            wedge;
    }
}


// ************************************************************************* //
