/*--------------------------------*- C++ -*----------------------------------*\
| =========                 |                                                 |
| \\      /  F ield         | OpenFOAM: The Open Source CFD Toolbox           |
|  \\    /   O peration     | Version:  2.4.x                                 |
|   \\  /    A nd           | Web:      www.OpenFOAM.org                      |
|    \\/     M anipulation  |                                                 |
\*---------------------------------------------------------------------------*/
FoamFile
{
    version     2.0;
    format      ascii;
    class       volScalarField;
    location    "0.02";
    object      T;
}
// * * * * * * * * * * * * * * * * * * * * * * * * * * * * * * * * * * * * * //

dimensions      [0 0 0 1 0 0 0];

internalField   nonuniform List<scalar> 
1250
(
308.132
345.611
385.306
423.353
460.612
496.629
531.728
566.044
602.825
646.447
693.021
741.38
814.915
924.607
1070.93
1122.56
1065.62
981.502
849.178
711.721
585.76
478.798
397.304
336.787
307.692
297.772
294.968
294.234
294.052
294.011
294.002
294
294
294
294
294
294
294
294
294
294
294
294
294
294
294
294
294
294
294
310.42
352.186
393.486
432.532
470.091
505.859
540.247
573.691
614.308
657.717
704.003
752.095
824.659
934.471
1075.93
1121.41
1064.82
979.526
847.083
710.065
584.497
477.946
396.766
336.462
307.576
297.739
294.96
294.232
294.052
294.011
294.002
294
294
294
294
294
294
294
294
294
294
294
294
294
294
294
294
294
294
294
317.615
370.645
415.553
456.251
493.279
526.876
561.451
600.842
641.187
683.898
729.207
776.473
845.173
956.244
1086.53
1118.13
1063.19
974.587
842.174
706.131
581.518
475.933
395.501
335.707
307.308
297.665
294.942
294.227
294.051
294.011
294.002
294
294
294
294
294
294
294
294
294
294
294
294
294
294
294
294
294
294
294
339.413
412.494
460.991
498.359
532.646
570.308
607.947
645.852
684.543
725.185
768.368
814.014
876.881
987.711
1100.36
1113.4
1059.5
966.731
834.418
699.969
576.698
472.767
393.504
334.514
306.885
297.548
294.912
294.22
294.049
294.01
294.002
294
294
294
294
294
294
294
294
294
294
294
294
294
294
294
294
294
294
294
425.004
515.266
543.176
577.269
609.143
640.959
674.191
708.758
744.316
781.009
820.467
861.877
926.069
1025.14
1114.68
1108.25
1052.31
955.747
823.809
691.739
570.246
468.529
390.824
332.919
306.321
297.392
294.873
294.211
294.047
294.01
294.002
294
294
294
294
294
294
294
294
294
294
294
294
294
294
294
294
294
294
294
919.736
725.887
695.939
702.667
720.374
743.924
770.314
799.467
827.83
855.827
888.394
928.237
983.415
1064.53
1125.62
1102.2
1045.08
941.832
810.849
681.65
562.349
463.329
387.166
330.974
305.639
297.204
294.826
294.2
294.045
294.009
294.002
294
294
294
294
294
294
294
294
294
294
294
294
294
294
294
294
294
294
294
1462.41
994.433
877.564
847.55
845.262
858.78
877.915
900.07
922.29
942.864
966.897
998.868
1041.59
1101.19
1129.45
1095.41
1033.28
925.086
795.341
669.793
553.215
456.882
382.456
328.748
304.87
296.993
294.773
294.187
294.042
294.009
294.002
294
294
294
294
294
294
294
294
294
294
294
294
294
294
294
294
294
294
294
1738.04
1157.21
1006.62
967.991
958.043
967.577
982.597
999.616
1016.49
1030.2
1043.87
1065.08
1093.36
1127.79
1126.9
1086.9
1017.07
905.699
778.249
656.371
543.087
449.723
377.247
326.322
304.045
296.768
294.716
294.174
294.039
294.008
294.002
294
294
294
294
294
294
294
294
294
294
294
294
294
294
294
294
294
294
294
1711.45
1156.4
1033.91
1026.35
1037.61
1050.25
1067.82
1083.29
1095.95
1104.05
1109.52
1119.35
1133.4
1141.09
1121.65
1072.6
996.318
883.971
760.472
641.946
532.231
442.07
371.707
323.783
303.197
296.539
294.658
294.16
294.036
294.007
294.001
294
294
294
294
294
294
294
294
294
294
294
294
294
294
294
294
294
294
294
1277.51
931.526
920.035
998.074
1052.48
1089.12
1116.56
1137.01
1149.83
1154.78
1154.98
1155.84
1154.34
1142.81
1111.71
1058.93
972.224
860.309
741.301
626.041
520.684
434.131
366.005
321.219
302.358
296.313
294.601
294.146
294.033
294.007
294.001
294
294
294
294
294
294
294
294
294
294
294
294
294
294
294
294
294
294
294
456.418
597.977
727.68
881.144
995.169
1069.88
1117.93
1148.63
1167.36
1174.18
1172.6
1168.51
1158.48
1134.42
1093.51
1036.26
944.832
834.391
720.655
609.042
508.418
425.842
360.121
318.635
301.529
296.091
294.545
294.133
294.03
294.006
294.001
294
294
294
294
294
294
294
294
294
294
294
294
294
294
294
294
294
294
294
340.624
437.521
563.756
728.399
883.327
994.314
1066.71
1117.47
1148.6
1163.45
1165.23
1159.83
1144.53
1112.85
1072.49
1003.6
911.526
804.376
696.754
590.046
494.79
416.626
353.688
315.885
300.665
295.859
294.487
294.119
294.027
294.006
294.001
294
294
294
294
294
294
294
294
294
294
294
294
294
294
294
294
294
294
294
313.197
370.634
463.848
606.786
756.04
886.558
984.756
1054.52
1094.37
1119.05
1128.16
1125.11
1110.68
1082.7
1032.36
960.563
870.363
770.644
668.274
567.408
478.954
405.859
346.369
312.853
299.727
295.607
294.423
294.103
294.023
294.005
294.001
294
294
294
294
294
294
294
294
294
294
294
294
294
294
294
294
294
294
294
304.444
339.699
407.631
521.031
654.544
776.05
877.745
958.51
1017.17
1054.97
1073.67
1074.77
1061.58
1027.92
975.864
905.769
820.417
729.537
633.49
541.022
460.172
392.695
338.108
309.553
298.722
295.334
294.353
294.087
294.02
294.004
294.001
294
294
294
294
294
294
294
294
294
294
294
294
294
294
294
294
294
294
294
300.702
324.441
376.289
465.156
574.95
682.08
776.504
853.684
915.706
959.681
984.799
991.296
981.665
952.463
903.74
838.679
764.112
680.279
592.862
510.272
437.643
375.714
329.083
306.106
297.684
295.049
294.278
294.068
294.016
294.003
294.001
294
294
294
294
294
294
294
294
294
294
294
294
294
294
294
294
294
294
294
298.721
315.815
354.693
425.433
513.205
600.612
682.07
753.072
810.975
853.469
879.622
889.804
883.876
860.419
819.817
764.514
697.593
622.732
546.955
475.996
412.233
356.859
319.809
302.741
296.675
294.767
294.204
294.05
294.011
294.002
294
294
294
294
294
294
294
294
294
294
294
294
294
294
294
294
294
294
294
294
297.422
309.817
337.972
392.454
459.334
528.048
594.256
654.491
705.757
745.178
771.279
782.578
779.509
761.751
727.389
679.745
622.616
560.266
497.459
438.015
383.845
337.851
311.141
299.746
295.774
294.512
294.136
294.034
294.008
294.002
294
294
294
294
294
294
294
294
294
294
294
294
294
294
294
294
294
294
294
294
296.449
305.158
324.55
362.779
412.666
464.856
514.862
561.764
602.981
636.006
658.815
669.724
668.453
655.335
628.001
590.572
545.583
496.448
446.577
398.054
352.829
320.718
304.033
297.368
295.049
294.303
294.081
294.02
294.005
294.001
294
294
294
294
294
294
294
294
294
294
294
294
294
294
294
294
294
294
294
294
295.684
301.415
313.432
336.806
371.759
409.741
446.599
481.152
511.304
536.246
553.558
562.311
561.88
552.684
532.903
505.14
472.178
433.814
395.711
357.001
326.368
307.709
299.067
295.716
294.537
294.155
294.041
294.01
294.002
294
294
294
294
294
294
294
294
294
294
294
294
294
294
294
294
294
294
294
294
294
295.058
298.407
304.764
316.724
336.028
360.669
387.665
411.314
432.635
450.412
463.152
469.607
469.274
462.418
447.718
427.52
403.539
375.966
347.63
324.035
308.153
299.803
296.155
294.734
294.23
294.066
294.018
294.004
294.001
294
294
294
294
294
294
294
294
294
294
294
294
294
294
294
294
294
294
294
294
294
294.605
296.369
299.27
304.214
312.408
324.248
338.628
353.795
368.061
379.988
388.384
392.142
391.589
386.491
375.867
361.602
345.216
328.781
314.668
304.662
298.854
295.992
294.743
294.253
294.079
294.023
294.006
294.001
294
294
294
294
294
294
294
294
294
294
294
294
294
294
294
294
294
294
294
294
294
294
294.303
295.129
296.314
298.065
300.691
304.523
309.664
315.725
321.904
327.249
330.917
332.323
331.635
328.641
323.253
316.672
309.93
304.039
299.652
296.851
295.294
294.531
294.197
294.067
294.021
294.006
294.002
294
294
294
294
294
294
294
294
294
294
294
294
294
294
294
294
294
294
294
294
294
294
294
294.121
294.447
294.88
295.446
296.179
297.125
298.323
299.745
301.233
302.542
303.387
303.57
303.2
302.226
300.714
298.966
297.35
296.048
295.132
294.564
294.253
294.103
294.038
294.013
294.004
294.001
294
294
294
294
294
294
294
294
294
294
294
294
294
294
294
294
294
294
294
294
294
294
294
294
294.027
294.118
294.246
294.398
294.566
294.749
294.946
295.155
295.352
295.506
295.573
295.546
295.433
295.238
294.989
294.725
294.484
294.293
294.159
294.077
294.033
294.013
294.005
294.001
294
294
294
294
294
294
294
294
294
294
294
294
294
294
294
294
294
294
294
294
294
294
294
294
294
294
294.001
294.016
294.035
294.054
294.072
294.088
294.102
294.114
294.123
294.128
294.127
294.12
294.107
294.089
294.068
294.049
294.032
294.019
294.01
294.005
294.002
294.001
294
294
294
294
294
294
294
294
294
294
294
294
294
294
294
294
294
294
294
294
294
294
294
294
294
294
294
294
)
;

boundaryField
{
    AXIS
    {
        type            empty;
    }
    OUTLET
    {
        type            calculated;
        value           uniform 294;
    }
    COFLOW
    {
        type            calculated;
        value           uniform 294;
    }
    PILOT
    {
        type            calculated;
        value           uniform 2102.68;
    }
    FUEL
    {
        type            calculated;
        value           uniform 294;
    }
    WALL
    {
        type            calculated;
        value           nonuniform List<scalar> 
50
(
294.001
294.016
294.035
294.054
294.072
294.088
294.102
294.114
294.123
294.128
294.127
294.12
294.107
294.089
294.068
294.049
294.032
294.019
294.01
294.005
294.002
294.001
294
294
294
294
294
294
294
294
294
294
294
294
294
294
294
294
294
294
294
294
294
294
294
294
294
294
294
294
)
;
    }
    front
    {
        type            wedge;
    }
    back
    {
        type            wedge;
    }
}


// ************************************************************************* //
