/*--------------------------------*- C++ -*----------------------------------*\
| =========                 |                                                 |
| \\      /  F ield         | OpenFOAM: The Open Source CFD Toolbox           |
|  \\    /   O peration     | Version:  2.4.x                                 |
|   \\  /    A nd           | Web:      www.OpenFOAM.org                      |
|    \\/     M anipulation  |                                                 |
\*---------------------------------------------------------------------------*/
FoamFile
{
    version     2.0;
    format      ascii;
    class       volScalarField;
    location    "0.02";
    object      thermo:psi;
}
// * * * * * * * * * * * * * * * * * * * * * * * * * * * * * * * * * * * * * //

dimensions      [0 -2 2 0 0 0 0];

internalField   nonuniform List<scalar> 
1250
(
1.00123e-05
8.92258e-06
8.0027e-06
7.2852e-06
6.69919e-06
6.21785e-06
5.81285e-06
5.46662e-06
5.13812e-06
4.79406e-06
4.47479e-06
4.18894e-06
3.82562e-06
3.40797e-06
2.98897e-06
2.90421e-06
3.11158e-06
3.4248e-06
3.99797e-06
4.80461e-06
5.86819e-06
7.20618e-06
8.70704e-06
1.02901e-05
1.12727e-05
1.16517e-05
1.17634e-05
1.1793e-05
1.18004e-05
1.1802e-05
1.18024e-05
1.18025e-05
1.18025e-05
1.18025e-05
1.18025e-05
1.18025e-05
1.18025e-05
1.18025e-05
1.18025e-05
1.18025e-05
1.18025e-05
1.18025e-05
1.18025e-05
1.18025e-05
1.18025e-05
1.18025e-05
1.18025e-05
1.18025e-05
1.18025e-05
1.18025e-05
9.93798e-06
8.75521e-06
7.83634e-06
7.13147e-06
6.56595e-06
6.10716e-06
5.72475e-06
5.39784e-06
5.04392e-06
4.71376e-06
4.40689e-06
4.1313e-06
3.78292e-06
3.37456e-06
2.97733e-06
2.90892e-06
3.11507e-06
3.43246e-06
4.00841e-06
4.81619e-06
5.88116e-06
7.21924e-06
8.719e-06
1.03001e-05
1.1277e-05
1.1653e-05
1.17637e-05
1.17931e-05
1.18004e-05
1.18021e-05
1.18024e-05
1.18025e-05
1.18025e-05
1.18025e-05
1.18025e-05
1.18025e-05
1.18025e-05
1.18025e-05
1.18025e-05
1.18025e-05
1.18025e-05
1.18025e-05
1.18025e-05
1.18025e-05
1.18025e-05
1.18025e-05
1.18025e-05
1.18025e-05
1.18025e-05
1.18025e-05
9.7112e-06
8.31721e-06
7.42071e-06
6.76395e-06
6.26326e-06
5.87186e-06
5.51695e-06
5.15871e-06
4.83706e-06
4.53775e-06
4.25908e-06
4.00639e-06
3.69795e-06
3.30353e-06
2.95334e-06
2.92139e-06
3.12243e-06
3.4516e-06
4.03307e-06
4.84391e-06
5.91196e-06
7.25026e-06
8.74723e-06
1.03235e-05
1.12869e-05
1.16559e-05
1.17645e-05
1.17933e-05
1.18004e-05
1.18021e-05
1.18024e-05
1.18025e-05
1.18025e-05
1.18025e-05
1.18025e-05
1.18025e-05
1.18025e-05
1.18025e-05
1.18025e-05
1.18025e-05
1.18025e-05
1.18025e-05
1.18025e-05
1.18025e-05
1.18025e-05
1.18025e-05
1.18025e-05
1.18025e-05
1.18025e-05
1.18025e-05
9.08248e-06
7.47081e-06
6.69375e-06
6.20395e-06
5.8152e-06
5.43662e-06
5.10427e-06
4.80803e-06
4.53901e-06
4.28724e-06
4.04978e-06
3.82972e-06
3.57484e-06
3.20726e-06
2.92382e-06
2.93971e-06
3.13731e-06
3.48234e-06
4.07257e-06
4.88794e-06
5.96246e-06
7.29961e-06
8.79217e-06
1.03607e-05
1.13027e-05
1.16605e-05
1.17657e-05
1.17936e-05
1.18005e-05
1.18021e-05
1.18024e-05
1.18025e-05
1.18025e-05
1.18025e-05
1.18025e-05
1.18025e-05
1.18025e-05
1.18025e-05
1.18025e-05
1.18025e-05
1.18025e-05
1.18025e-05
1.18025e-05
1.18025e-05
1.18025e-05
1.18025e-05
1.18025e-05
1.18025e-05
1.18025e-05
1.18025e-05
7.23908e-06
5.98468e-06
5.70277e-06
5.37738e-06
5.10352e-06
4.85501e-06
4.61894e-06
4.396e-06
4.18775e-06
3.99306e-06
3.80438e-06
3.63089e-06
3.39667e-06
3.10209e-06
2.89613e-06
2.96089e-06
3.16405e-06
3.52594e-06
4.12771e-06
4.94797e-06
6.03137e-06
7.3667e-06
8.85322e-06
1.04108e-05
1.13237e-05
1.16667e-05
1.17672e-05
1.17939e-05
1.18006e-05
1.18021e-05
1.18024e-05
1.18025e-05
1.18025e-05
1.18025e-05
1.18025e-05
1.18025e-05
1.18025e-05
1.18025e-05
1.18025e-05
1.18025e-05
1.18025e-05
1.18025e-05
1.18025e-05
1.18025e-05
1.18025e-05
1.18025e-05
1.18025e-05
1.18025e-05
1.18025e-05
1.18025e-05
3.37288e-06
4.29187e-06
4.4869e-06
4.44877e-06
4.3419e-06
4.20535e-06
4.0617e-06
3.91411e-06
3.78136e-06
3.66016e-06
3.52955e-06
3.38565e-06
3.21365e-06
3.00171e-06
2.8797e-06
2.98601e-06
3.1933e-06
3.58241e-06
4.19697e-06
5.02352e-06
6.11787e-06
7.45068e-06
8.93787e-06
1.04726e-05
1.13491e-05
1.16741e-05
1.17691e-05
1.17944e-05
1.18007e-05
1.18021e-05
1.18024e-05
1.18025e-05
1.18025e-05
1.18025e-05
1.18025e-05
1.18025e-05
1.18025e-05
1.18025e-05
1.18025e-05
1.18025e-05
1.18025e-05
1.18025e-05
1.18025e-05
1.18025e-05
1.18025e-05
1.18025e-05
1.18025e-05
1.18025e-05
1.18025e-05
1.18025e-05
2.18576e-06
3.18801e-06
3.60571e-06
3.72819e-06
3.7344e-06
3.67224e-06
3.58955e-06
3.49941e-06
3.41419e-06
3.34049e-06
3.26049e-06
3.1637e-06
3.05215e-06
2.91795e-06
2.88316e-06
3.01435e-06
3.23731e-06
3.6523e-06
4.28263e-06
5.11516e-06
6.22097e-06
7.55743e-06
9.0492e-06
1.05442e-05
1.1378e-05
1.16825e-05
1.17713e-05
1.17949e-05
1.18008e-05
1.18021e-05
1.18024e-05
1.18025e-05
1.18025e-05
1.18025e-05
1.18025e-05
1.18025e-05
1.18025e-05
1.18025e-05
1.18025e-05
1.18025e-05
1.18025e-05
1.18025e-05
1.18025e-05
1.18025e-05
1.18025e-05
1.18025e-05
1.18025e-05
1.18025e-05
1.18025e-05
1.18025e-05
1.88166e-06
2.79732e-06
3.19803e-06
3.31023e-06
3.33336e-06
3.29223e-06
3.23561e-06
3.17611e-06
3.12069e-06
3.07881e-06
3.0407e-06
2.98723e-06
2.92752e-06
2.86646e-06
2.90382e-06
3.04846e-06
3.29628e-06
3.73606e-06
4.38085e-06
5.22282e-06
6.33934e-06
7.67956e-06
9.17555e-06
1.06233e-05
1.14092e-05
1.16914e-05
1.17736e-05
1.17955e-05
1.18009e-05
1.18022e-05
1.18024e-05
1.18025e-05
1.18025e-05
1.18025e-05
1.18025e-05
1.18025e-05
1.18025e-05
1.18025e-05
1.18025e-05
1.18025e-05
1.18025e-05
1.18025e-05
1.18025e-05
1.18025e-05
1.18025e-05
1.18025e-05
1.18025e-05
1.18025e-05
1.18025e-05
1.18025e-05
1.93342e-06
2.8615e-06
3.175e-06
3.17294e-06
3.11959e-06
3.06883e-06
3.00851e-06
2.95853e-06
2.91969e-06
2.89659e-06
2.88357e-06
2.86446e-06
2.84477e-06
2.85092e-06
2.93174e-06
3.10014e-06
3.37267e-06
3.83389e-06
4.48732e-06
5.34352e-06
6.47119e-06
7.81445e-06
9.31382e-06
1.07075e-05
1.14414e-05
1.17006e-05
1.17759e-05
1.1796e-05
1.1801e-05
1.18022e-05
1.18024e-05
1.18025e-05
1.18025e-05
1.18025e-05
1.18025e-05
1.18025e-05
1.18025e-05
1.18025e-05
1.18025e-05
1.18025e-05
1.18025e-05
1.18025e-05
1.18025e-05
1.18025e-05
1.18025e-05
1.18025e-05
1.18025e-05
1.18025e-05
1.18025e-05
1.18025e-05
2.63714e-06
3.62738e-06
3.64102e-06
3.31876e-06
3.12071e-06
2.99715e-06
2.91018e-06
2.84811e-06
2.80966e-06
2.79419e-06
2.79398e-06
2.7968e-06
2.81392e-06
2.86439e-06
2.97227e-06
3.15256e-06
3.46429e-06
3.94562e-06
4.60773e-06
5.48279e-06
6.61742e-06
7.95941e-06
9.46051e-06
1.07937e-05
1.14734e-05
1.17096e-05
1.17782e-05
1.17966e-05
1.18012e-05
1.18022e-05
1.18024e-05
1.18025e-05
1.18025e-05
1.18025e-05
1.18025e-05
1.18025e-05
1.18025e-05
1.18025e-05
1.18025e-05
1.18025e-05
1.18025e-05
1.18025e-05
1.18025e-05
1.18025e-05
1.18025e-05
1.18025e-05
1.18025e-05
1.18025e-05
1.18025e-05
1.18025e-05
7.56616e-06
5.73643e-06
4.67417e-06
3.81951e-06
3.34859e-06
3.09115e-06
2.94139e-06
2.85025e-06
2.79564e-06
2.77403e-06
2.7767e-06
2.78978e-06
2.8246e-06
2.90338e-06
3.03633e-06
3.2325e-06
3.57318e-06
4.0748e-06
4.74443e-06
5.63958e-06
6.77998e-06
8.11653e-06
9.61673e-06
1.08821e-05
1.15052e-05
1.17184e-05
1.17804e-05
1.17971e-05
1.18013e-05
1.18022e-05
1.18024e-05
1.18025e-05
1.18025e-05
1.18025e-05
1.18025e-05
1.18025e-05
1.18025e-05
1.18025e-05
1.18025e-05
1.18025e-05
1.18025e-05
1.18025e-05
1.18025e-05
1.18025e-05
1.18025e-05
1.18025e-05
1.18025e-05
1.18025e-05
1.18025e-05
1.18025e-05
1.0172e-05
7.88914e-06
6.08643e-06
4.67362e-06
3.82047e-06
3.36904e-06
3.11929e-06
2.96237e-06
2.87097e-06
2.82704e-06
2.81996e-06
2.83495e-06
2.88079e-06
2.97845e-06
3.11229e-06
3.3493e-06
3.71312e-06
4.23424e-06
4.91256e-06
5.82539e-06
6.97e-06
8.2985e-06
9.79349e-06
1.09777e-05
1.15386e-05
1.17277e-05
1.17828e-05
1.17977e-05
1.18014e-05
1.18023e-05
1.18024e-05
1.18025e-05
1.18025e-05
1.18025e-05
1.18025e-05
1.18025e-05
1.18025e-05
1.18025e-05
1.18025e-05
1.18025e-05
1.18025e-05
1.18025e-05
1.18025e-05
1.18025e-05
1.18025e-05
1.18025e-05
1.18025e-05
1.18025e-05
1.18025e-05
1.18025e-05
1.10718e-05
9.33605e-06
7.43194e-06
5.64812e-06
4.50383e-06
3.8149e-06
3.41418e-06
3.17257e-06
3.04348e-06
2.96772e-06
2.93954e-06
2.94795e-06
2.99151e-06
3.08208e-06
3.24933e-06
3.51252e-06
3.89948e-06
4.42721e-06
5.12832e-06
6.0629e-06
7.20432e-06
8.52152e-06
1.00026e-05
1.10851e-05
1.1575e-05
1.17378e-05
1.17854e-05
1.17983e-05
1.18015e-05
1.18023e-05
1.18024e-05
1.18025e-05
1.18025e-05
1.18025e-05
1.18025e-05
1.18025e-05
1.18025e-05
1.18025e-05
1.18025e-05
1.18025e-05
1.18025e-05
1.18025e-05
1.18025e-05
1.18025e-05
1.18025e-05
1.18025e-05
1.18025e-05
1.18025e-05
1.18025e-05
1.18025e-05
1.13934e-05
1.01981e-05
8.47738e-06
6.60456e-06
5.23006e-06
4.38847e-06
3.86086e-06
3.51936e-06
3.30376e-06
3.17634e-06
3.11597e-06
3.11214e-06
3.15425e-06
3.26668e-06
3.45486e-06
3.73985e-06
4.14908e-06
4.68582e-06
5.41748e-06
6.36463e-06
7.50302e-06
8.81056e-06
1.02495e-05
1.12044e-05
1.16143e-05
1.17487e-05
1.17882e-05
1.1799e-05
1.18017e-05
1.18023e-05
1.18025e-05
1.18025e-05
1.18025e-05
1.18025e-05
1.18025e-05
1.18025e-05
1.18025e-05
1.18025e-05
1.18025e-05
1.18025e-05
1.18025e-05
1.18025e-05
1.18025e-05
1.18025e-05
1.18025e-05
1.18025e-05
1.18025e-05
1.18025e-05
1.18025e-05
1.18025e-05
1.15368e-05
1.06839e-05
9.19557e-06
7.41622e-06
5.97648e-06
5.01704e-06
4.38956e-06
3.97863e-06
3.69707e-06
3.51853e-06
3.42322e-06
3.39922e-06
3.43477e-06
3.54703e-06
3.74972e-06
4.05554e-06
4.4673e-06
5.03594e-06
5.79766e-06
6.75537e-06
7.895e-06
9.21336e-06
1.05334e-05
1.13317e-05
1.16552e-05
1.17602e-05
1.17912e-05
1.17997e-05
1.18019e-05
1.18024e-05
1.18025e-05
1.18025e-05
1.18025e-05
1.18025e-05
1.18025e-05
1.18025e-05
1.18025e-05
1.18025e-05
1.18025e-05
1.18025e-05
1.18025e-05
1.18025e-05
1.18025e-05
1.18025e-05
1.18025e-05
1.18025e-05
1.18025e-05
1.18025e-05
1.18025e-05
1.18025e-05
1.16142e-05
1.09795e-05
9.76382e-06
8.1219e-06
6.71328e-06
5.71858e-06
5.02006e-06
4.53356e-06
4.19922e-06
3.98225e-06
3.85894e-06
3.81273e-06
3.83957e-06
3.94931e-06
4.15334e-06
4.46536e-06
4.90785e-06
5.51377e-06
6.29465e-06
7.25012e-06
8.38817e-06
9.70554e-06
1.08418e-05
1.14588e-05
1.16951e-05
1.17715e-05
1.17942e-05
1.18004e-05
1.1802e-05
1.18024e-05
1.18025e-05
1.18025e-05
1.18025e-05
1.18025e-05
1.18025e-05
1.18025e-05
1.18025e-05
1.18025e-05
1.18025e-05
1.18025e-05
1.18025e-05
1.18025e-05
1.18025e-05
1.18025e-05
1.18025e-05
1.18025e-05
1.18025e-05
1.18025e-05
1.18025e-05
1.18025e-05
1.16654e-05
1.11944e-05
1.02529e-05
8.81478e-06
7.51548e-06
6.52281e-06
5.78291e-06
5.23923e-06
4.84911e-06
4.5852e-06
4.42516e-06
4.35917e-06
4.37701e-06
4.48265e-06
4.70142e-06
5.04066e-06
5.51511e-06
6.14249e-06
6.93264e-06
7.88842e-06
9.01599e-06
1.02573e-05
1.11466e-05
1.15743e-05
1.17311e-05
1.17818e-05
1.1797e-05
1.18011e-05
1.18022e-05
1.18024e-05
1.18025e-05
1.18025e-05
1.18025e-05
1.18025e-05
1.18025e-05
1.18025e-05
1.18025e-05
1.18025e-05
1.18025e-05
1.18025e-05
1.18025e-05
1.18025e-05
1.18025e-05
1.18025e-05
1.18025e-05
1.18025e-05
1.18025e-05
1.18025e-05
1.18025e-05
1.18025e-05
1.17041e-05
1.13671e-05
1.06817e-05
9.54522e-06
8.37867e-06
7.42596e-06
6.69398e-06
6.12553e-06
5.69871e-06
5.39645e-06
5.20527e-06
5.1184e-06
5.12842e-06
5.23372e-06
5.46706e-06
5.8214e-06
6.31123e-06
6.94718e-06
7.73524e-06
8.69053e-06
9.81752e-06
1.08107e-05
1.14096e-05
1.16676e-05
1.17602e-05
1.17902e-05
1.17992e-05
1.18017e-05
1.18023e-05
1.18024e-05
1.18025e-05
1.18025e-05
1.18025e-05
1.18025e-05
1.18025e-05
1.18025e-05
1.18025e-05
1.18025e-05
1.18025e-05
1.18025e-05
1.18025e-05
1.18025e-05
1.18025e-05
1.18025e-05
1.18025e-05
1.18025e-05
1.18025e-05
1.18025e-05
1.18025e-05
1.18025e-05
1.17347e-05
1.15096e-05
1.10645e-05
1.02895e-05
9.3125e-06
8.43981e-06
7.73475e-06
7.17159e-06
6.74221e-06
6.42338e-06
6.21892e-06
6.12032e-06
6.1251e-06
6.22896e-06
6.46446e-06
6.82596e-06
7.31018e-06
7.96579e-06
8.74256e-06
9.7016e-06
1.06218e-05
1.12721e-05
1.16008e-05
1.17334e-05
1.17808e-05
1.17962e-05
1.18008e-05
1.18021e-05
1.18024e-05
1.18025e-05
1.18025e-05
1.18025e-05
1.18025e-05
1.18025e-05
1.18025e-05
1.18025e-05
1.18025e-05
1.18025e-05
1.18025e-05
1.18025e-05
1.18025e-05
1.18025e-05
1.18025e-05
1.18025e-05
1.18025e-05
1.18025e-05
1.18025e-05
1.18025e-05
1.18025e-05
1.18025e-05
1.17598e-05
1.16267e-05
1.1382e-05
1.09484e-05
1.03135e-05
9.60188e-06
8.92609e-06
8.40706e-06
7.98775e-06
7.66848e-06
7.45473e-06
7.35085e-06
7.35615e-06
7.46673e-06
7.71524e-06
8.08454e-06
8.57099e-06
9.20702e-06
9.96585e-06
1.0699e-05
1.12557e-05
1.15721e-05
1.17159e-05
1.17728e-05
1.17932e-05
1.17998e-05
1.18018e-05
1.18023e-05
1.18024e-05
1.18025e-05
1.18025e-05
1.18025e-05
1.18025e-05
1.18025e-05
1.18025e-05
1.18025e-05
1.18025e-05
1.18025e-05
1.18025e-05
1.18025e-05
1.18025e-05
1.18025e-05
1.18025e-05
1.18025e-05
1.18025e-05
1.18025e-05
1.18025e-05
1.18025e-05
1.18025e-05
1.18025e-05
1.1778e-05
1.17073e-05
1.15929e-05
1.14028e-05
1.1101e-05
1.06919e-05
1.02335e-05
9.79038e-06
9.40693e-06
9.10842e-06
8.9093e-06
8.82295e-06
8.83555e-06
8.95345e-06
9.20944e-06
9.5768e-06
1.00362e-05
1.05431e-05
1.10205e-05
1.13859e-05
1.16091e-05
1.17224e-05
1.17725e-05
1.17923e-05
1.17993e-05
1.18016e-05
1.18022e-05
1.18024e-05
1.18025e-05
1.18025e-05
1.18025e-05
1.18025e-05
1.18025e-05
1.18025e-05
1.18025e-05
1.18025e-05
1.18025e-05
1.18025e-05
1.18025e-05
1.18025e-05
1.18025e-05
1.18025e-05
1.18025e-05
1.18025e-05
1.18025e-05
1.18025e-05
1.18025e-05
1.18025e-05
1.18025e-05
1.18025e-05
1.17902e-05
1.17569e-05
1.17095e-05
1.16401e-05
1.15376e-05
1.13911e-05
1.12003e-05
1.09833e-05
1.07705e-05
1.05929e-05
1.04743e-05
1.04296e-05
1.04514e-05
1.05476e-05
1.07251e-05
1.09501e-05
1.11906e-05
1.14094e-05
1.15779e-05
1.16882e-05
1.17503e-05
1.1781e-05
1.17945e-05
1.17998e-05
1.18016e-05
1.18022e-05
1.18024e-05
1.18025e-05
1.18025e-05
1.18025e-05
1.18025e-05
1.18025e-05
1.18025e-05
1.18025e-05
1.18025e-05
1.18025e-05
1.18025e-05
1.18025e-05
1.18025e-05
1.18025e-05
1.18025e-05
1.18025e-05
1.18025e-05
1.18025e-05
1.18025e-05
1.18025e-05
1.18025e-05
1.18025e-05
1.18025e-05
1.18025e-05
1.17976e-05
1.17844e-05
1.17669e-05
1.17442e-05
1.17149e-05
1.16773e-05
1.163e-05
1.15743e-05
1.15166e-05
1.14664e-05
1.14341e-05
1.14272e-05
1.14412e-05
1.14784e-05
1.15367e-05
1.16047e-05
1.16684e-05
1.17201e-05
1.17568e-05
1.17797e-05
1.17922e-05
1.17983e-05
1.1801e-05
1.1802e-05
1.18023e-05
1.18024e-05
1.18025e-05
1.18025e-05
1.18025e-05
1.18025e-05
1.18025e-05
1.18025e-05
1.18025e-05
1.18025e-05
1.18025e-05
1.18025e-05
1.18025e-05
1.18025e-05
1.18025e-05
1.18025e-05
1.18025e-05
1.18025e-05
1.18025e-05
1.18025e-05
1.18025e-05
1.18025e-05
1.18025e-05
1.18025e-05
1.18025e-05
1.18025e-05
1.18014e-05
1.17977e-05
1.17925e-05
1.17864e-05
1.17796e-05
1.17722e-05
1.17643e-05
1.17559e-05
1.1748e-05
1.17418e-05
1.17391e-05
1.17402e-05
1.17447e-05
1.17526e-05
1.17626e-05
1.17732e-05
1.17829e-05
1.17906e-05
1.1796e-05
1.17994e-05
1.18012e-05
1.1802e-05
1.18023e-05
1.18024e-05
1.18025e-05
1.18025e-05
1.18025e-05
1.18025e-05
1.18025e-05
1.18025e-05
1.18025e-05
1.18025e-05
1.18025e-05
1.18025e-05
1.18025e-05
1.18025e-05
1.18025e-05
1.18025e-05
1.18025e-05
1.18025e-05
1.18025e-05
1.18025e-05
1.18025e-05
1.18025e-05
1.18025e-05
1.18025e-05
1.18025e-05
1.18025e-05
1.18025e-05
1.18025e-05
1.18025e-05
1.18018e-05
1.18011e-05
1.18003e-05
1.17996e-05
1.17989e-05
1.17984e-05
1.17979e-05
1.17975e-05
1.17973e-05
1.17974e-05
1.17976e-05
1.17982e-05
1.17989e-05
1.17997e-05
1.18005e-05
1.18012e-05
1.18017e-05
1.18021e-05
1.18023e-05
1.18024e-05
1.18025e-05
1.18025e-05
1.18025e-05
1.18025e-05
1.18025e-05
1.18025e-05
1.18025e-05
1.18025e-05
1.18025e-05
1.18025e-05
1.18025e-05
1.18025e-05
1.18025e-05
1.18025e-05
1.18025e-05
1.18025e-05
1.18025e-05
1.18025e-05
1.18025e-05
1.18025e-05
1.18025e-05
1.18025e-05
1.18025e-05
1.18025e-05
1.18025e-05
1.18025e-05
1.18025e-05
1.18025e-05
1.18025e-05
)
;

boundaryField
{
    AXIS
    {
        type            empty;
    }
    OUTLET
    {
        type            calculated;
        value           uniform 1.18025e-05;
    }
    COFLOW
    {
        type            calculated;
        value           uniform 1.18025e-05;
    }
    PILOT
    {
        type            calculated;
        value           uniform 1.56801e-06;
    }
    FUEL
    {
        type            calculated;
        value           uniform 1.04958e-05;
    }
    WALL
    {
        type            calculated;
        value           nonuniform List<scalar> 
50
(
1.18025e-05
1.18018e-05
1.18011e-05
1.18003e-05
1.17996e-05
1.17989e-05
1.17984e-05
1.17979e-05
1.17975e-05
1.17973e-05
1.17974e-05
1.17976e-05
1.17982e-05
1.17989e-05
1.17997e-05
1.18005e-05
1.18012e-05
1.18017e-05
1.18021e-05
1.18023e-05
1.18024e-05
1.18025e-05
1.18025e-05
1.18025e-05
1.18025e-05
1.18025e-05
1.18025e-05
1.18025e-05
1.18025e-05
1.18025e-05
1.18025e-05
1.18025e-05
1.18025e-05
1.18025e-05
1.18025e-05
1.18025e-05
1.18025e-05
1.18025e-05
1.18025e-05
1.18025e-05
1.18025e-05
1.18025e-05
1.18025e-05
1.18025e-05
1.18025e-05
1.18025e-05
1.18025e-05
1.18025e-05
1.18025e-05
1.18025e-05
)
;
    }
    front
    {
        type            wedge;
    }
    back
    {
        type            wedge;
    }
}


// ************************************************************************* //
