/*--------------------------------*- C++ -*----------------------------------*\
| =========                 |                                                 |
| \\      /  F ield         | OpenFOAM: The Open Source CFD Toolbox           |
|  \\    /   O peration     | Version:  2.4.x                                 |
|   \\  /    A nd           | Web:      www.OpenFOAM.org                      |
|    \\/     M anipulation  |                                                 |
\*---------------------------------------------------------------------------*/
FoamFile
{
    version     2.0;
    format      ascii;
    class       volScalarField;
    location    "0.02";
    object      thermo:alpha;
}
// * * * * * * * * * * * * * * * * * * * * * * * * * * * * * * * * * * * * * //

dimensions      [1 -1 -1 0 0 0 0];

internalField   nonuniform List<scalar> 
1250
(
2.7222e-05
2.99505e-05
3.26903e-05
3.51869e-05
3.75221e-05
3.96869e-05
4.17174e-05
4.36338e-05
4.56192e-05
4.78904e-05
5.02253e-05
5.25636e-05
5.59734e-05
6.07997e-05
6.68461e-05
6.90158e-05
6.69838e-05
6.37329e-05
5.81422e-05
5.17374e-05
4.51879e-05
3.89714e-05
3.3727e-05
2.94847e-05
2.7323e-05
2.65661e-05
2.63503e-05
2.62936e-05
2.62796e-05
2.62764e-05
2.62757e-05
2.62756e-05
2.62756e-05
2.62756e-05
2.62756e-05
2.62756e-05
2.62756e-05
2.62756e-05
2.62756e-05
2.62756e-05
2.62756e-05
2.62756e-05
2.62756e-05
2.62756e-05
2.62756e-05
2.62756e-05
2.62756e-05
2.62756e-05
2.62756e-05
2.62756e-05
2.73928e-05
3.04146e-05
3.32372e-05
3.57719e-05
3.81004e-05
4.02283e-05
4.21994e-05
4.40525e-05
4.6226e-05
4.84641e-05
5.0764e-05
5.30709e-05
5.64132e-05
6.12184e-05
6.7048e-05
6.8978e-05
6.6956e-05
6.36535e-05
5.80496e-05
5.16559e-05
4.51183e-05
3.8919e-05
3.36907e-05
2.9461e-05
2.73142e-05
2.65636e-05
2.63497e-05
2.62935e-05
2.62796e-05
2.62764e-05
2.62757e-05
2.62756e-05
2.62756e-05
2.62756e-05
2.62756e-05
2.62756e-05
2.62756e-05
2.62756e-05
2.62756e-05
2.62756e-05
2.62756e-05
2.62756e-05
2.62756e-05
2.62756e-05
2.62756e-05
2.62756e-05
2.62756e-05
2.62756e-05
2.62756e-05
2.62756e-05
2.79263e-05
3.16952e-05
3.46846e-05
3.72541e-05
3.94896e-05
4.14418e-05
4.33821e-05
4.55154e-05
4.76229e-05
4.97768e-05
5.19837e-05
5.4211e-05
5.73328e-05
6.21355e-05
6.74752e-05
6.88666e-05
6.69007e-05
6.3454e-05
5.78319e-05
5.14619e-05
4.49539e-05
3.87952e-05
3.36052e-05
2.9406e-05
2.72939e-05
2.65579e-05
2.63482e-05
2.62931e-05
2.62795e-05
2.62764e-05
2.62757e-05
2.62756e-05
2.62756e-05
2.62756e-05
2.62756e-05
2.62756e-05
2.62756e-05
2.62756e-05
2.62756e-05
2.62756e-05
2.62756e-05
2.62756e-05
2.62756e-05
2.62756e-05
2.62756e-05
2.62756e-05
2.62756e-05
2.62756e-05
2.62756e-05
2.62756e-05
2.95092e-05
3.44859e-05
3.75452e-05
3.97894e-05
4.17712e-05
4.38703e-05
4.58942e-05
4.78645e-05
4.98117e-05
5.17937e-05
5.38354e-05
5.59309e-05
5.87322e-05
6.34448e-05
6.8034e-05
6.87061e-05
6.6768e-05
6.31352e-05
5.74864e-05
5.11568e-05
4.46867e-05
3.85997e-05
3.347e-05
2.93189e-05
2.72618e-05
2.65489e-05
2.6346e-05
2.62926e-05
2.62794e-05
2.62764e-05
2.62757e-05
2.62756e-05
2.62756e-05
2.62756e-05
2.62756e-05
2.62756e-05
2.62756e-05
2.62756e-05
2.62756e-05
2.62756e-05
2.62756e-05
2.62756e-05
2.62756e-05
2.62756e-05
2.62756e-05
2.62756e-05
2.62756e-05
2.62756e-05
2.62756e-05
2.62756e-05
3.52916e-05
4.07717e-05
4.23654e-05
4.4252e-05
4.59614e-05
4.7619e-05
4.93026e-05
5.10061e-05
5.27118e-05
5.44265e-05
5.62241e-05
5.807e-05
6.08498e-05
6.49827e-05
6.86161e-05
6.85351e-05
6.65009e-05
6.26863e-05
5.70105e-05
5.07467e-05
4.43273e-05
3.8337e-05
3.32879e-05
2.92021e-05
2.72189e-05
2.65369e-05
2.63429e-05
2.62919e-05
2.62792e-05
2.62763e-05
2.62757e-05
2.62756e-05
2.62756e-05
2.62756e-05
2.62756e-05
2.62756e-05
2.62756e-05
2.62756e-05
2.62756e-05
2.62756e-05
2.62756e-05
2.62756e-05
2.62756e-05
2.62756e-05
2.62756e-05
2.62756e-05
2.62756e-05
2.62756e-05
2.62756e-05
2.62756e-05
6.05338e-05
5.18319e-05
5.03887e-05
5.07224e-05
5.15833e-05
5.27085e-05
5.3946e-05
5.52866e-05
5.65671e-05
5.78099e-05
5.92294e-05
6.09349e-05
6.32526e-05
6.65806e-05
6.90745e-05
6.83333e-05
6.62379e-05
6.21125e-05
5.64241e-05
5.02399e-05
4.38842e-05
3.8013e-05
3.30386e-05
2.90595e-05
2.71672e-05
2.65225e-05
2.63393e-05
2.6291e-05
2.6279e-05
2.62763e-05
2.62757e-05
2.62756e-05
2.62756e-05
2.62756e-05
2.62756e-05
2.62756e-05
2.62756e-05
2.62756e-05
2.62756e-05
2.62756e-05
2.62756e-05
2.62756e-05
2.62756e-05
2.62756e-05
2.62756e-05
2.62756e-05
2.62756e-05
2.62756e-05
2.62756e-05
2.62756e-05
8.08848e-05
6.37195e-05
5.88143e-05
5.74936e-05
5.73864e-05
5.79757e-05
5.88047e-05
5.97542e-05
6.06954e-05
6.15589e-05
6.25594e-05
6.38783e-05
6.56338e-05
6.80538e-05
6.92672e-05
6.81051e-05
6.57912e-05
6.14146e-05
5.57147e-05
4.96387e-05
4.33674e-05
3.76087e-05
3.27159e-05
2.88959e-05
2.71087e-05
2.65063e-05
2.63352e-05
2.629e-05
2.62788e-05
2.62762e-05
2.62757e-05
2.62756e-05
2.62756e-05
2.62756e-05
2.62756e-05
2.62756e-05
2.62756e-05
2.62756e-05
2.62756e-05
2.62756e-05
2.62756e-05
2.62756e-05
2.62756e-05
2.62756e-05
2.62756e-05
2.62756e-05
2.62756e-05
2.62756e-05
2.62756e-05
2.62756e-05
8.9827e-05
7.02539e-05
6.4335e-05
6.27208e-05
6.22838e-05
6.2658e-05
6.32588e-05
6.39397e-05
6.4614e-05
6.5162e-05
6.57108e-05
6.6565e-05
6.77165e-05
6.91302e-05
6.92206e-05
6.78108e-05
6.51616e-05
6.05964e-05
5.49233e-05
4.89506e-05
4.27888e-05
3.71563e-05
3.23567e-05
2.87169e-05
2.70459e-05
2.6489e-05
2.63308e-05
2.6289e-05
2.62786e-05
2.62762e-05
2.62757e-05
2.62756e-05
2.62756e-05
2.62756e-05
2.62756e-05
2.62756e-05
2.62756e-05
2.62756e-05
2.62756e-05
2.62756e-05
2.62756e-05
2.62756e-05
2.62756e-05
2.62756e-05
2.62756e-05
2.62756e-05
2.62756e-05
2.62756e-05
2.62756e-05
2.62756e-05
8.9117e-05
7.04617e-05
6.56185e-05
6.52358e-05
6.56278e-05
6.60897e-05
6.67515e-05
6.73345e-05
6.78112e-05
6.81188e-05
6.83334e-05
6.87298e-05
6.93176e-05
6.96988e-05
6.90726e-05
6.72889e-05
6.43393e-05
5.96662e-05
5.40892e-05
4.82018e-05
4.21619e-05
3.66686e-05
3.19722e-05
2.85289e-05
2.69813e-05
2.64713e-05
2.63264e-05
2.62879e-05
2.62783e-05
2.62761e-05
2.62757e-05
2.62756e-05
2.62756e-05
2.62756e-05
2.62756e-05
2.62756e-05
2.62756e-05
2.62756e-05
2.62756e-05
2.62756e-05
2.62756e-05
2.62756e-05
2.62756e-05
2.62756e-05
2.62756e-05
2.62756e-05
2.62756e-05
2.62756e-05
2.62756e-05
2.62756e-05
7.5079e-05
6.16918e-05
6.11153e-05
6.4261e-05
6.63633e-05
6.77373e-05
6.87496e-05
6.94947e-05
6.99561e-05
7.01306e-05
7.014e-05
7.01902e-05
7.01832e-05
6.98296e-05
6.87432e-05
6.67935e-05
6.33684e-05
5.86367e-05
5.31764e-05
4.73646e-05
4.14876e-05
3.61582e-05
3.15735e-05
2.83386e-05
2.69173e-05
2.64539e-05
2.6322e-05
2.62868e-05
2.62781e-05
2.62761e-05
2.62757e-05
2.62756e-05
2.62756e-05
2.62756e-05
2.62756e-05
2.62756e-05
2.62756e-05
2.62756e-05
2.62756e-05
2.62756e-05
2.62756e-05
2.62756e-05
2.62756e-05
2.62756e-05
2.62756e-05
2.62756e-05
2.62756e-05
2.62756e-05
2.62756e-05
2.62756e-05
3.75798e-05
4.58519e-05
5.24868e-05
5.94783e-05
6.42035e-05
6.71234e-05
6.89281e-05
7.00497e-05
7.072e-05
7.09546e-05
7.0892e-05
7.07524e-05
7.04173e-05
6.95777e-05
6.80909e-05
6.59276e-05
6.22447e-05
5.74889e-05
5.21771e-05
4.64561e-05
4.07623e-05
3.56201e-05
3.11592e-05
2.8146e-05
2.6854e-05
2.64368e-05
2.63177e-05
2.62858e-05
2.62779e-05
2.6276e-05
2.62757e-05
2.62756e-05
2.62756e-05
2.62756e-05
2.62756e-05
2.62756e-05
2.62756e-05
2.62756e-05
2.62756e-05
2.62756e-05
2.62756e-05
2.62756e-05
2.62756e-05
2.62756e-05
2.62756e-05
2.62756e-05
2.62756e-05
2.62756e-05
2.62756e-05
2.62756e-05
2.97635e-05
3.63752e-05
4.3955e-05
5.25281e-05
5.96018e-05
6.42232e-05
6.70637e-05
6.89846e-05
7.01288e-05
7.06601e-05
7.07163e-05
7.05208e-05
6.99738e-05
6.88213e-05
6.73288e-05
6.46409e-05
6.08495e-05
5.61321e-05
5.09986e-05
4.54238e-05
3.99454e-05
3.50158e-05
3.07026e-05
2.79404e-05
2.67879e-05
2.6419e-05
2.63132e-05
2.62847e-05
2.62776e-05
2.6276e-05
2.62757e-05
2.62756e-05
2.62756e-05
2.62756e-05
2.62756e-05
2.62756e-05
2.62756e-05
2.62756e-05
2.62756e-05
2.62756e-05
2.62756e-05
2.62756e-05
2.62756e-05
2.62756e-05
2.62756e-05
2.62756e-05
2.62756e-05
2.62756e-05
2.62756e-05
2.62756e-05
2.77385e-05
3.18969e-05
3.80431e-05
4.63265e-05
5.38648e-05
5.97644e-05
6.38716e-05
6.66449e-05
6.81607e-05
6.90818e-05
6.94144e-05
6.92994e-05
6.87651e-05
6.77274e-05
6.57863e-05
6.28995e-05
5.90803e-05
5.45708e-05
4.95625e-05
4.41688e-05
3.89811e-05
3.43013e-05
3.01785e-05
2.77126e-05
2.67161e-05
2.63995e-05
2.63082e-05
2.62836e-05
2.62774e-05
2.62759e-05
2.62756e-05
2.62756e-05
2.62756e-05
2.62756e-05
2.62756e-05
2.62756e-05
2.62756e-05
2.62756e-05
2.62756e-05
2.62756e-05
2.62756e-05
2.62756e-05
2.62756e-05
2.62756e-05
2.62756e-05
2.62756e-05
2.62756e-05
2.62756e-05
2.62756e-05
2.62756e-05
2.70763e-05
2.96962e-05
3.44186e-05
4.15052e-05
4.88505e-05
5.48153e-05
5.93946e-05
6.28134e-05
6.51923e-05
6.66807e-05
6.74027e-05
6.74433e-05
6.69342e-05
6.56183e-05
6.35294e-05
6.06087e-05
5.68635e-05
5.26108e-05
4.77587e-05
4.26703e-05
3.78155e-05
3.34151e-05
2.95809e-05
2.74638e-05
2.6639e-05
2.63785e-05
2.63028e-05
2.62823e-05
2.62771e-05
2.62759e-05
2.62756e-05
2.62756e-05
2.62756e-05
2.62756e-05
2.62756e-05
2.62756e-05
2.62756e-05
2.62756e-05
2.62756e-05
2.62756e-05
2.62756e-05
2.62756e-05
2.62756e-05
2.62756e-05
2.62756e-05
2.62756e-05
2.62756e-05
2.62756e-05
2.62756e-05
2.62756e-05
2.67907e-05
2.85777e-05
3.229e-05
3.8126e-05
4.45876e-05
5.02596e-05
5.48427e-05
5.83481e-05
6.1032e-05
6.28708e-05
6.38987e-05
6.41617e-05
6.37707e-05
6.25724e-05
6.05245e-05
5.76851e-05
5.42652e-05
5.01729e-05
4.55783e-05
4.08727e-05
3.63846e-05
3.22505e-05
2.89205e-05
2.72026e-05
2.65593e-05
2.63565e-05
2.62971e-05
2.62809e-05
2.62768e-05
2.62758e-05
2.62756e-05
2.62756e-05
2.62756e-05
2.62756e-05
2.62756e-05
2.62756e-05
2.62756e-05
2.62756e-05
2.62756e-05
2.62756e-05
2.62756e-05
2.62756e-05
2.62756e-05
2.62756e-05
2.62756e-05
2.62756e-05
2.62756e-05
2.62756e-05
2.62756e-05
2.62756e-05
2.66389e-05
2.7935e-05
3.07741e-05
3.55931e-05
4.10459e-05
4.59995e-05
5.02618e-05
5.37413e-05
5.64375e-05
5.83439e-05
5.94888e-05
5.99293e-05
5.96732e-05
5.86499e-05
5.68396e-05
5.42851e-05
5.1042e-05
4.71896e-05
4.30108e-05
3.87992e-05
3.47254e-05
3.09281e-05
2.82335e-05
2.69465e-05
2.64818e-05
2.63348e-05
2.62913e-05
2.62795e-05
2.62765e-05
2.62758e-05
2.62756e-05
2.62756e-05
2.62756e-05
2.62756e-05
2.62756e-05
2.62756e-05
2.62756e-05
2.62756e-05
2.62756e-05
2.62756e-05
2.62756e-05
2.62756e-05
2.62756e-05
2.62756e-05
2.62756e-05
2.62756e-05
2.62756e-05
2.62756e-05
2.62756e-05
2.62756e-05
2.65392e-05
2.74837e-05
2.9571e-05
3.33986e-05
3.77627e-05
4.19185e-05
4.56542e-05
4.88547e-05
5.14474e-05
5.33667e-05
5.46046e-05
5.51327e-05
5.49897e-05
5.41558e-05
5.25085e-05
5.01465e-05
4.71835e-05
4.37673e-05
4.01065e-05
3.64086e-05
3.28113e-05
2.95622e-05
2.75837e-05
2.67176e-05
2.64124e-05
2.63151e-05
2.62861e-05
2.62782e-05
2.62762e-05
2.62757e-05
2.62756e-05
2.62756e-05
2.62756e-05
2.62756e-05
2.62756e-05
2.62756e-05
2.62756e-05
2.62756e-05
2.62756e-05
2.62756e-05
2.62756e-05
2.62756e-05
2.62756e-05
2.62756e-05
2.62756e-05
2.62756e-05
2.62756e-05
2.62756e-05
2.62756e-05
2.62756e-05
2.64644e-05
2.71306e-05
2.85858e-05
3.13468e-05
3.4754e-05
3.81084e-05
4.11446e-05
4.38518e-05
4.61294e-05
4.78918e-05
4.90786e-05
4.96378e-05
4.95729e-05
4.88991e-05
4.74696e-05
4.54532e-05
4.29324e-05
4.00457e-05
3.69565e-05
3.37776e-05
3.06414e-05
2.83013e-05
2.7045e-05
2.65351e-05
2.63565e-05
2.6299e-05
2.62818e-05
2.62771e-05
2.62759e-05
2.62756e-05
2.62756e-05
2.62756e-05
2.62756e-05
2.62756e-05
2.62756e-05
2.62756e-05
2.62756e-05
2.62756e-05
2.62756e-05
2.62756e-05
2.62756e-05
2.62756e-05
2.62756e-05
2.62756e-05
2.62756e-05
2.62756e-05
2.62756e-05
2.62756e-05
2.62756e-05
2.62756e-05
2.64055e-05
2.68453e-05
2.77562e-05
2.94861e-05
3.19758e-05
3.456e-05
3.69579e-05
3.91161e-05
4.09341e-05
4.23951e-05
4.33876e-05
4.38829e-05
4.38586e-05
4.33379e-05
4.22015e-05
4.05672e-05
3.85635e-05
3.61378e-05
3.36194e-05
3.09382e-05
2.87203e-05
2.73243e-05
2.66655e-05
2.64079e-05
2.6317e-05
2.62876e-05
2.62788e-05
2.62764e-05
2.62757e-05
2.62756e-05
2.62756e-05
2.62756e-05
2.62756e-05
2.62756e-05
2.62756e-05
2.62756e-05
2.62756e-05
2.62756e-05
2.62756e-05
2.62756e-05
2.62756e-05
2.62756e-05
2.62756e-05
2.62756e-05
2.62756e-05
2.62756e-05
2.62756e-05
2.62756e-05
2.62756e-05
2.62756e-05
2.63572e-05
2.66149e-05
2.71006e-05
2.80032e-05
2.94294e-05
3.1198e-05
3.30727e-05
3.46645e-05
3.60616e-05
3.72002e-05
3.80023e-05
3.84043e-05
3.83836e-05
3.79563e-05
3.70291e-05
3.57296e-05
3.41462e-05
3.2268e-05
3.02692e-05
2.85477e-05
2.73579e-05
2.67219e-05
2.64418e-05
2.63322e-05
2.62933e-05
2.62807e-05
2.62769e-05
2.62759e-05
2.62756e-05
2.62756e-05
2.62756e-05
2.62756e-05
2.62756e-05
2.62756e-05
2.62756e-05
2.62756e-05
2.62756e-05
2.62756e-05
2.62756e-05
2.62756e-05
2.62756e-05
2.62756e-05
2.62756e-05
2.62756e-05
2.62756e-05
2.62756e-05
2.62756e-05
2.62756e-05
2.62756e-05
2.62756e-05
2.63223e-05
2.64582e-05
2.66811e-05
2.70588e-05
2.76792e-05
2.85635e-05
2.96187e-05
3.07103e-05
3.17176e-05
3.2546e-05
3.31218e-05
3.33776e-05
3.334e-05
3.29925e-05
3.22612e-05
3.12638e-05
3.00955e-05
2.88983e-05
2.78491e-05
2.70929e-05
2.66492e-05
2.64292e-05
2.63329e-05
2.62951e-05
2.62817e-05
2.62773e-05
2.6276e-05
2.62757e-05
2.62756e-05
2.62756e-05
2.62756e-05
2.62756e-05
2.62756e-05
2.62756e-05
2.62756e-05
2.62756e-05
2.62756e-05
2.62756e-05
2.62756e-05
2.62756e-05
2.62756e-05
2.62756e-05
2.62756e-05
2.62756e-05
2.62756e-05
2.62756e-05
2.62756e-05
2.62756e-05
2.62756e-05
2.62756e-05
2.6299e-05
2.63627e-05
2.6454e-05
2.65886e-05
2.67899e-05
2.70823e-05
2.74722e-05
2.79283e-05
2.83895e-05
2.87854e-05
2.90553e-05
2.91585e-05
2.9108e-05
2.88879e-05
2.84897e-05
2.79993e-05
2.74923e-05
2.70455e-05
2.67104e-05
2.64953e-05
2.63754e-05
2.63165e-05
2.62908e-05
2.62807e-05
2.62772e-05
2.6276e-05
2.62757e-05
2.62756e-05
2.62756e-05
2.62756e-05
2.62756e-05
2.62756e-05
2.62756e-05
2.62756e-05
2.62756e-05
2.62756e-05
2.62756e-05
2.62756e-05
2.62756e-05
2.62756e-05
2.62756e-05
2.62756e-05
2.62756e-05
2.62756e-05
2.62756e-05
2.62756e-05
2.62756e-05
2.62756e-05
2.62756e-05
2.62756e-05
2.62849e-05
2.63101e-05
2.63435e-05
2.63871e-05
2.64436e-05
2.65164e-05
2.66084e-05
2.67174e-05
2.68314e-05
2.69313e-05
2.69958e-05
2.70097e-05
2.69815e-05
2.69072e-05
2.67917e-05
2.66578e-05
2.65336e-05
2.64335e-05
2.63629e-05
2.63191e-05
2.62951e-05
2.62835e-05
2.62785e-05
2.62765e-05
2.62759e-05
2.62757e-05
2.62756e-05
2.62756e-05
2.62756e-05
2.62756e-05
2.62756e-05
2.62756e-05
2.62756e-05
2.62756e-05
2.62756e-05
2.62756e-05
2.62756e-05
2.62756e-05
2.62756e-05
2.62756e-05
2.62756e-05
2.62756e-05
2.62756e-05
2.62756e-05
2.62756e-05
2.62756e-05
2.62756e-05
2.62756e-05
2.62756e-05
2.62756e-05
2.62777e-05
2.62847e-05
2.62946e-05
2.63063e-05
2.63193e-05
2.63334e-05
2.63486e-05
2.63647e-05
2.63799e-05
2.63917e-05
2.63969e-05
2.63948e-05
2.63861e-05
2.63711e-05
2.63519e-05
2.63315e-05
2.6313e-05
2.62982e-05
2.62879e-05
2.62815e-05
2.62781e-05
2.62766e-05
2.62759e-05
2.62757e-05
2.62756e-05
2.62756e-05
2.62756e-05
2.62756e-05
2.62756e-05
2.62756e-05
2.62756e-05
2.62756e-05
2.62756e-05
2.62756e-05
2.62756e-05
2.62756e-05
2.62756e-05
2.62756e-05
2.62756e-05
2.62756e-05
2.62756e-05
2.62756e-05
2.62756e-05
2.62756e-05
2.62756e-05
2.62756e-05
2.62756e-05
2.62756e-05
2.62756e-05
2.62756e-05
2.62756e-05
2.62768e-05
2.62783e-05
2.62797e-05
2.62811e-05
2.62823e-05
2.62834e-05
2.62843e-05
2.6285e-05
2.62854e-05
2.62854e-05
2.62848e-05
2.62838e-05
2.62824e-05
2.62808e-05
2.62793e-05
2.6278e-05
2.6277e-05
2.62763e-05
2.62759e-05
2.62757e-05
2.62756e-05
2.62756e-05
2.62756e-05
2.62756e-05
2.62756e-05
2.62756e-05
2.62756e-05
2.62756e-05
2.62756e-05
2.62756e-05
2.62756e-05
2.62756e-05
2.62756e-05
2.62756e-05
2.62756e-05
2.62756e-05
2.62756e-05
2.62756e-05
2.62756e-05
2.62756e-05
2.62756e-05
2.62756e-05
2.62756e-05
2.62756e-05
2.62756e-05
2.62756e-05
2.62756e-05
2.62756e-05
2.62756e-05
)
;

boundaryField
{
    AXIS
    {
        type            empty;
    }
    OUTLET
    {
        type            calculated;
        value           uniform 2.62756e-05;
    }
    COFLOW
    {
        type            calculated;
        value           uniform 2.62756e-05;
    }
    PILOT
    {
        type            calculated;
        value           uniform 0.000100126;
    }
    FUEL
    {
        type            calculated;
        value           uniform 2.61542e-05;
    }
    WALL
    {
        type            calculated;
        value           nonuniform List<scalar> 
50
(
2.62756e-05
2.62768e-05
2.62783e-05
2.62797e-05
2.62811e-05
2.62823e-05
2.62834e-05
2.62843e-05
2.6285e-05
2.62854e-05
2.62854e-05
2.62848e-05
2.62838e-05
2.62824e-05
2.62808e-05
2.62793e-05
2.6278e-05
2.6277e-05
2.62763e-05
2.62759e-05
2.62757e-05
2.62756e-05
2.62756e-05
2.62756e-05
2.62756e-05
2.62756e-05
2.62756e-05
2.62756e-05
2.62756e-05
2.62756e-05
2.62756e-05
2.62756e-05
2.62756e-05
2.62756e-05
2.62756e-05
2.62756e-05
2.62756e-05
2.62756e-05
2.62756e-05
2.62756e-05
2.62756e-05
2.62756e-05
2.62756e-05
2.62756e-05
2.62756e-05
2.62756e-05
2.62756e-05
2.62756e-05
2.62756e-05
2.62756e-05
)
;
    }
    front
    {
        type            wedge;
    }
    back
    {
        type            wedge;
    }
}


// ************************************************************************* //
