/*--------------------------------*- C++ -*----------------------------------*\
| =========                 |                                                 |
| \\      /  F ield         | OpenFOAM: The Open Source CFD Toolbox           |
|  \\    /   O peration     | Version:  2.4.x                                 |
|   \\  /    A nd           | Web:      www.OpenFOAM.org                      |
|    \\/     M anipulation  |                                                 |
\*---------------------------------------------------------------------------*/
FoamFile
{
    version     2.0;
    format      ascii;
    class       volScalarField;
    location    "0.02";
    object      thermo:mu;
}
// * * * * * * * * * * * * * * * * * * * * * * * * * * * * * * * * * * * * * //

dimensions      [1 -1 -1 0 0 0 0];

internalField   nonuniform List<scalar> 
1250
(
1.88892e-05
2.08095e-05
2.27467e-05
2.45198e-05
2.61846e-05
2.77328e-05
2.91889e-05
3.05663e-05
3.1996e-05
3.36342e-05
3.53206e-05
3.70092e-05
3.94676e-05
4.29219e-05
4.71982e-05
4.863e-05
4.7049e-05
4.46258e-05
4.05723e-05
3.59807e-05
3.13384e-05
2.69735e-05
2.33143e-05
2.03657e-05
1.88662e-05
1.83415e-05
1.8192e-05
1.81527e-05
1.8143e-05
1.81408e-05
1.81403e-05
1.81402e-05
1.81402e-05
1.81402e-05
1.81402e-05
1.81402e-05
1.81402e-05
1.81402e-05
1.81402e-05
1.81402e-05
1.81402e-05
1.81402e-05
1.81402e-05
1.81402e-05
1.81402e-05
1.81402e-05
1.81402e-05
1.81402e-05
1.81402e-05
1.81402e-05
1.90092e-05
2.1137e-05
2.31345e-05
2.49362e-05
2.65976e-05
2.81206e-05
2.95349e-05
3.08674e-05
3.24331e-05
3.4048e-05
3.57094e-05
3.73753e-05
3.97843e-05
4.32213e-05
4.73386e-05
4.85985e-05
4.70264e-05
4.45675e-05
4.05054e-05
3.59226e-05
3.12894e-05
2.69368e-05
2.3289e-05
2.03493e-05
1.88601e-05
1.83398e-05
1.81915e-05
1.81526e-05
1.8143e-05
1.81408e-05
1.81403e-05
1.81402e-05
1.81402e-05
1.81402e-05
1.81402e-05
1.81402e-05
1.81402e-05
1.81402e-05
1.81402e-05
1.81402e-05
1.81402e-05
1.81402e-05
1.81402e-05
1.81402e-05
1.81402e-05
1.81402e-05
1.81402e-05
1.81402e-05
1.81402e-05
1.81402e-05
1.9384e-05
2.20421e-05
2.41625e-05
2.59932e-05
2.75912e-05
2.89905e-05
3.03844e-05
3.19201e-05
3.34398e-05
3.49951e-05
3.65898e-05
3.8198e-05
4.04444e-05
4.38762e-05
4.76347e-05
4.85087e-05
4.69805e-05
4.44216e-05
4.03484e-05
3.57844e-05
3.11734e-05
2.68502e-05
2.32295e-05
2.03111e-05
1.8846e-05
1.83358e-05
1.81906e-05
1.81524e-05
1.81429e-05
1.81408e-05
1.81403e-05
1.81402e-05
1.81402e-05
1.81402e-05
1.81402e-05
1.81402e-05
1.81402e-05
1.81402e-05
1.81402e-05
1.81402e-05
1.81402e-05
1.81402e-05
1.81402e-05
1.81402e-05
1.81402e-05
1.81402e-05
1.81402e-05
1.81402e-05
1.81402e-05
1.81402e-05
2.04983e-05
2.40216e-05
2.62012e-05
2.78058e-05
2.92263e-05
3.07344e-05
3.21915e-05
3.36123e-05
3.50181e-05
3.64504e-05
3.7926e-05
3.94382e-05
4.14479e-05
4.48085e-05
4.80191e-05
4.83787e-05
4.68762e-05
4.41887e-05
4.00994e-05
3.55669e-05
3.09852e-05
2.67135e-05
2.31354e-05
2.02506e-05
1.88237e-05
1.83296e-05
1.8189e-05
1.8152e-05
1.81428e-05
1.81407e-05
1.81403e-05
1.81402e-05
1.81402e-05
1.81402e-05
1.81402e-05
1.81402e-05
1.81402e-05
1.81402e-05
1.81402e-05
1.81402e-05
1.81402e-05
1.81402e-05
1.81402e-05
1.81402e-05
1.81402e-05
1.81402e-05
1.81402e-05
1.81402e-05
1.81402e-05
1.81402e-05
2.4595e-05
2.85121e-05
2.96533e-05
3.10075e-05
3.2237e-05
3.34314e-05
3.46462e-05
3.58767e-05
3.71098e-05
3.83495e-05
3.96483e-05
4.09755e-05
4.29663e-05
4.58965e-05
4.84138e-05
4.82371e-05
4.66728e-05
4.38613e-05
3.97567e-05
3.5275e-05
3.0732e-05
2.65298e-05
2.30087e-05
2.01696e-05
1.8794e-05
1.83213e-05
1.81869e-05
1.81515e-05
1.81427e-05
1.81407e-05
1.81403e-05
1.81402e-05
1.81402e-05
1.81402e-05
1.81402e-05
1.81402e-05
1.81402e-05
1.81402e-05
1.81402e-05
1.81402e-05
1.81402e-05
1.81402e-05
1.81402e-05
1.81402e-05
1.81402e-05
1.81402e-05
1.81402e-05
1.81402e-05
1.81402e-05
1.81402e-05
4.27733e-05
3.64747e-05
3.54242e-05
3.56623e-05
3.62831e-05
3.70963e-05
3.79915e-05
3.89614e-05
3.98869e-05
4.07838e-05
4.18074e-05
4.30322e-05
4.46822e-05
4.70183e-05
4.8714e-05
4.807e-05
4.64673e-05
4.34436e-05
3.93349e-05
3.49145e-05
3.04201e-05
2.63034e-05
2.28352e-05
2.00706e-05
1.87582e-05
1.83113e-05
1.81844e-05
1.81509e-05
1.81426e-05
1.81407e-05
1.81403e-05
1.81402e-05
1.81402e-05
1.81402e-05
1.81402e-05
1.81402e-05
1.81402e-05
1.81402e-05
1.81402e-05
1.81402e-05
1.81402e-05
1.81402e-05
1.81402e-05
1.81402e-05
1.81402e-05
1.81402e-05
1.81402e-05
1.81402e-05
1.81402e-05
1.81402e-05
5.72616e-05
4.50055e-05
4.14693e-05
4.05203e-05
4.04473e-05
4.08775e-05
4.14803e-05
4.21694e-05
4.28513e-05
4.34747e-05
4.41937e-05
4.51351e-05
4.63676e-05
4.80419e-05
4.88185e-05
4.78819e-05
4.61302e-05
4.29364e-05
3.88253e-05
3.44872e-05
3.00565e-05
2.60209e-05
2.26107e-05
1.99571e-05
1.87176e-05
1.83001e-05
1.81815e-05
1.81502e-05
1.81424e-05
1.81407e-05
1.81403e-05
1.81402e-05
1.81402e-05
1.81402e-05
1.81402e-05
1.81402e-05
1.81402e-05
1.81402e-05
1.81402e-05
1.81402e-05
1.81402e-05
1.81402e-05
1.81402e-05
1.81402e-05
1.81402e-05
1.81402e-05
1.81402e-05
1.81402e-05
1.81402e-05
1.81402e-05
6.34769e-05
4.95708e-05
4.5361e-05
4.42262e-05
4.39299e-05
4.42139e-05
4.46581e-05
4.51569e-05
4.5647e-05
4.60419e-05
4.64327e-05
4.70337e-05
4.78249e-05
4.87731e-05
4.87487e-05
4.76451e-05
4.56638e-05
4.2343e-05
3.82574e-05
3.39988e-05
2.96497e-05
2.57049e-05
2.23609e-05
1.98329e-05
1.86741e-05
1.82881e-05
1.81785e-05
1.81495e-05
1.81423e-05
1.81406e-05
1.81403e-05
1.81402e-05
1.81402e-05
1.81402e-05
1.81402e-05
1.81402e-05
1.81402e-05
1.81402e-05
1.81402e-05
1.81402e-05
1.81402e-05
1.81402e-05
1.81402e-05
1.81402e-05
1.81402e-05
1.81402e-05
1.81402e-05
1.81402e-05
1.81402e-05
1.81402e-05
6.29022e-05
4.95489e-05
4.61482e-05
4.59313e-05
4.62541e-05
4.66143e-05
4.71108e-05
4.75446e-05
4.78969e-05
4.81211e-05
4.82719e-05
4.85423e-05
4.89262e-05
4.91351e-05
4.86052e-05
4.72452e-05
4.50606e-05
4.16696e-05
3.76596e-05
3.34679e-05
2.92094e-05
2.53645e-05
2.20935e-05
1.97025e-05
1.86293e-05
1.82758e-05
1.81754e-05
1.81487e-05
1.81421e-05
1.81406e-05
1.81403e-05
1.81402e-05
1.81402e-05
1.81402e-05
1.81402e-05
1.81402e-05
1.81402e-05
1.81402e-05
1.81402e-05
1.81402e-05
1.81402e-05
1.81402e-05
1.81402e-05
1.81402e-05
1.81402e-05
1.81402e-05
1.81402e-05
1.81402e-05
1.81402e-05
1.81402e-05
5.27218e-05
4.31321e-05
4.27825e-05
4.51119e-05
4.66774e-05
4.77069e-05
4.84657e-05
4.90243e-05
4.93719e-05
4.95053e-05
4.95109e-05
4.9534e-05
4.94936e-05
4.91818e-05
4.83323e-05
4.68602e-05
4.43517e-05
4.09259e-05
3.70064e-05
3.28753e-05
2.8736e-05
2.50084e-05
2.18165e-05
1.95704e-05
1.85849e-05
1.82638e-05
1.81724e-05
1.8148e-05
1.8142e-05
1.81406e-05
1.81403e-05
1.81402e-05
1.81402e-05
1.81402e-05
1.81402e-05
1.81402e-05
1.81402e-05
1.81402e-05
1.81402e-05
1.81402e-05
1.81402e-05
1.81402e-05
1.81402e-05
1.81402e-05
1.81402e-05
1.81402e-05
1.81402e-05
1.81402e-05
1.81402e-05
1.81402e-05
2.60005e-05
3.18102e-05
3.65369e-05
4.15813e-05
4.5027e-05
4.71689e-05
4.85032e-05
4.93393e-05
4.98434e-05
5.00259e-05
4.99837e-05
4.98743e-05
4.96051e-05
4.89538e-05
4.7829e-05
4.62155e-05
4.3534e-05
4.00985e-05
3.62929e-05
3.22332e-05
2.82274e-05
2.46331e-05
2.15286e-05
1.94369e-05
1.85411e-05
1.82519e-05
1.81694e-05
1.81473e-05
1.81418e-05
1.81405e-05
1.81403e-05
1.81402e-05
1.81402e-05
1.81402e-05
1.81402e-05
1.81402e-05
1.81402e-05
1.81402e-05
1.81402e-05
1.81402e-05
1.81402e-05
1.81402e-05
1.81402e-05
1.81402e-05
1.81402e-05
1.81402e-05
1.81402e-05
1.81402e-05
1.81402e-05
1.81402e-05
2.05593e-05
2.51608e-05
3.04758e-05
3.65618e-05
4.16495e-05
4.5002e-05
4.70795e-05
4.84907e-05
4.93386e-05
4.97386e-05
4.97864e-05
4.96414e-05
4.92285e-05
4.83638e-05
4.7242e-05
4.5273e-05
4.25221e-05
3.91228e-05
3.54531e-05
3.15045e-05
2.76551e-05
2.42119e-05
2.12114e-05
1.92942e-05
1.84952e-05
1.82396e-05
1.81662e-05
1.81466e-05
1.81416e-05
1.81405e-05
1.81403e-05
1.81402e-05
1.81402e-05
1.81402e-05
1.81402e-05
1.81402e-05
1.81402e-05
1.81402e-05
1.81402e-05
1.81402e-05
1.81402e-05
1.81402e-05
1.81402e-05
1.81402e-05
1.81402e-05
1.81402e-05
1.81402e-05
1.81402e-05
1.81402e-05
1.81402e-05
1.91543e-05
2.20416e-05
2.63261e-05
3.21473e-05
3.75094e-05
4.17502e-05
4.47216e-05
4.67355e-05
4.78529e-05
4.8534e-05
4.87832e-05
4.86998e-05
4.83038e-05
4.7528e-05
4.61038e-05
4.40051e-05
4.12432e-05
3.80025e-05
3.44322e-05
3.06201e-05
2.69802e-05
2.37142e-05
2.08474e-05
1.91363e-05
1.84455e-05
1.82261e-05
1.81628e-05
1.81457e-05
1.81414e-05
1.81405e-05
1.81402e-05
1.81402e-05
1.81402e-05
1.81402e-05
1.81402e-05
1.81402e-05
1.81402e-05
1.81402e-05
1.81402e-05
1.81402e-05
1.81402e-05
1.81402e-05
1.81402e-05
1.81402e-05
1.81402e-05
1.81402e-05
1.81402e-05
1.81402e-05
1.81402e-05
1.81402e-05
1.86952e-05
2.05127e-05
2.37965e-05
2.87504e-05
3.39319e-05
3.81838e-05
4.1475e-05
4.39439e-05
4.56665e-05
4.67481e-05
4.72753e-05
4.7306e-05
4.69349e-05
4.59764e-05
4.44594e-05
4.23451e-05
3.96467e-05
3.66012e-05
3.31538e-05
2.95663e-05
2.61653e-05
2.30972e-05
2.04324e-05
1.89638e-05
1.83921e-05
1.82115e-05
1.81591e-05
1.81448e-05
1.81412e-05
1.81404e-05
1.81402e-05
1.81402e-05
1.81402e-05
1.81402e-05
1.81402e-05
1.81402e-05
1.81402e-05
1.81402e-05
1.81402e-05
1.81402e-05
1.81402e-05
1.81402e-05
1.81402e-05
1.81402e-05
1.81402e-05
1.81402e-05
1.81402e-05
1.81402e-05
1.81402e-05
1.81402e-05
1.84972e-05
1.97364e-05
2.23148e-05
2.63831e-05
3.09167e-05
3.49299e-05
3.8199e-05
4.07157e-05
4.26501e-05
4.39788e-05
4.47229e-05
4.49136e-05
4.46306e-05
4.37631e-05
4.22826e-05
4.02364e-05
3.77826e-05
3.48653e-05
3.16133e-05
2.83047e-05
2.51663e-05
2.22871e-05
1.99741e-05
1.87827e-05
1.83368e-05
1.81963e-05
1.81551e-05
1.81439e-05
1.8141e-05
1.81404e-05
1.81402e-05
1.81402e-05
1.81402e-05
1.81402e-05
1.81402e-05
1.81402e-05
1.81402e-05
1.81402e-05
1.81402e-05
1.81402e-05
1.81402e-05
1.81402e-05
1.81402e-05
1.81402e-05
1.81402e-05
1.81402e-05
1.81402e-05
1.81402e-05
1.81402e-05
1.81402e-05
1.8392e-05
1.92906e-05
2.12611e-05
2.46145e-05
2.84266e-05
3.19113e-05
3.49296e-05
3.74085e-05
3.9339e-05
4.07089e-05
4.15337e-05
4.18512e-05
4.16666e-05
4.09294e-05
3.96272e-05
3.77962e-05
3.54828e-05
3.2751e-05
2.98055e-05
2.68529e-05
2.40095e-05
2.1368e-05
1.94976e-05
1.86052e-05
1.82831e-05
1.81812e-05
1.81511e-05
1.81429e-05
1.81408e-05
1.81403e-05
1.81402e-05
1.81402e-05
1.81402e-05
1.81402e-05
1.81402e-05
1.81402e-05
1.81402e-05
1.81402e-05
1.81402e-05
1.81402e-05
1.81402e-05
1.81402e-05
1.81402e-05
1.81402e-05
1.81402e-05
1.81402e-05
1.81402e-05
1.81402e-05
1.81402e-05
1.81402e-05
1.83229e-05
1.89776e-05
2.04256e-05
2.30858e-05
2.61286e-05
2.90385e-05
3.1667e-05
3.393e-05
3.57712e-05
3.71393e-05
3.80239e-05
3.84018e-05
3.82995e-05
3.77028e-05
3.65268e-05
3.48461e-05
3.27466e-05
3.03374e-05
2.77678e-05
2.5183e-05
2.26771e-05
2.04195e-05
1.90469e-05
1.84465e-05
1.8235e-05
1.81676e-05
1.81475e-05
1.8142e-05
1.81406e-05
1.81403e-05
1.81402e-05
1.81402e-05
1.81402e-05
1.81402e-05
1.81402e-05
1.81402e-05
1.81402e-05
1.81402e-05
1.81402e-05
1.81402e-05
1.81402e-05
1.81402e-05
1.81402e-05
1.81402e-05
1.81402e-05
1.81402e-05
1.81402e-05
1.81402e-05
1.81402e-05
1.81402e-05
1.8271e-05
1.87328e-05
1.9742e-05
2.16589e-05
2.40295e-05
2.637e-05
2.84954e-05
3.03969e-05
3.2002e-05
3.32475e-05
3.40881e-05
3.44848e-05
3.44387e-05
3.39609e-05
3.29488e-05
3.15248e-05
2.97503e-05
2.77251e-05
2.55653e-05
2.33495e-05
2.11688e-05
1.95446e-05
1.86734e-05
1.832e-05
1.81963e-05
1.81564e-05
1.81445e-05
1.81413e-05
1.81404e-05
1.81402e-05
1.81402e-05
1.81402e-05
1.81402e-05
1.81402e-05
1.81402e-05
1.81402e-05
1.81402e-05
1.81402e-05
1.81402e-05
1.81402e-05
1.81402e-05
1.81402e-05
1.81402e-05
1.81402e-05
1.81402e-05
1.81402e-05
1.81402e-05
1.81402e-05
1.81402e-05
1.81402e-05
1.82302e-05
1.8535e-05
1.91666e-05
2.03667e-05
2.20961e-05
2.38943e-05
2.55663e-05
2.70745e-05
2.83476e-05
2.93728e-05
3.00702e-05
3.04185e-05
3.04015e-05
3.00352e-05
2.92368e-05
2.80905e-05
2.6688e-05
2.49941e-05
2.32394e-05
2.1375e-05
1.98353e-05
1.88671e-05
1.84104e-05
1.82319e-05
1.81689e-05
1.81485e-05
1.81424e-05
1.81407e-05
1.81403e-05
1.81402e-05
1.81402e-05
1.81402e-05
1.81402e-05
1.81402e-05
1.81402e-05
1.81402e-05
1.81402e-05
1.81402e-05
1.81402e-05
1.81402e-05
1.81402e-05
1.81402e-05
1.81402e-05
1.81402e-05
1.81402e-05
1.81402e-05
1.81402e-05
1.81402e-05
1.81402e-05
1.81402e-05
1.81968e-05
1.83753e-05
1.8712e-05
1.93378e-05
2.03273e-05
2.15555e-05
2.28589e-05
2.39671e-05
2.49409e-05
2.57355e-05
2.62957e-05
2.65767e-05
2.65622e-05
2.62636e-05
2.5616e-05
2.47094e-05
2.36061e-05
2.22993e-05
2.09103e-05
1.97155e-05
1.88904e-05
1.84495e-05
1.82554e-05
1.81795e-05
1.81525e-05
1.81437e-05
1.81411e-05
1.81404e-05
1.81402e-05
1.81402e-05
1.81402e-05
1.81402e-05
1.81402e-05
1.81402e-05
1.81402e-05
1.81402e-05
1.81402e-05
1.81402e-05
1.81402e-05
1.81402e-05
1.81402e-05
1.81402e-05
1.81402e-05
1.81402e-05
1.81402e-05
1.81402e-05
1.81402e-05
1.81402e-05
1.81402e-05
1.81402e-05
1.81726e-05
1.82668e-05
1.84212e-05
1.8683e-05
1.91131e-05
1.97264e-05
2.04587e-05
2.12166e-05
2.19166e-05
2.24926e-05
2.28931e-05
2.30711e-05
2.30449e-05
2.28031e-05
2.22945e-05
2.16012e-05
2.07897e-05
1.99587e-05
1.92309e-05
1.87066e-05
1.83991e-05
1.82466e-05
1.81799e-05
1.81537e-05
1.81444e-05
1.81414e-05
1.81405e-05
1.81403e-05
1.81402e-05
1.81402e-05
1.81402e-05
1.81402e-05
1.81402e-05
1.81402e-05
1.81402e-05
1.81402e-05
1.81402e-05
1.81402e-05
1.81402e-05
1.81402e-05
1.81402e-05
1.81402e-05
1.81402e-05
1.81402e-05
1.81402e-05
1.81402e-05
1.81402e-05
1.81402e-05
1.81402e-05
1.81402e-05
1.81564e-05
1.82006e-05
1.82638e-05
1.83571e-05
1.84966e-05
1.86993e-05
1.89696e-05
1.92859e-05
1.96058e-05
1.98804e-05
2.00677e-05
2.01393e-05
2.01043e-05
1.99516e-05
1.96753e-05
1.93351e-05
1.89835e-05
1.86738e-05
1.84415e-05
1.82924e-05
1.82094e-05
1.81686e-05
1.81507e-05
1.81438e-05
1.81413e-05
1.81405e-05
1.81403e-05
1.81402e-05
1.81402e-05
1.81402e-05
1.81402e-05
1.81402e-05
1.81402e-05
1.81402e-05
1.81402e-05
1.81402e-05
1.81402e-05
1.81402e-05
1.81402e-05
1.81402e-05
1.81402e-05
1.81402e-05
1.81402e-05
1.81402e-05
1.81402e-05
1.81402e-05
1.81402e-05
1.81402e-05
1.81402e-05
1.81402e-05
1.81467e-05
1.81641e-05
1.81873e-05
1.82175e-05
1.82566e-05
1.83071e-05
1.83708e-05
1.84464e-05
1.85254e-05
1.85946e-05
1.86394e-05
1.8649e-05
1.86294e-05
1.8578e-05
1.84979e-05
1.8405e-05
1.8319e-05
1.82496e-05
1.82007e-05
1.81704e-05
1.81538e-05
1.81457e-05
1.81422e-05
1.81409e-05
1.81404e-05
1.81403e-05
1.81402e-05
1.81402e-05
1.81402e-05
1.81402e-05
1.81402e-05
1.81402e-05
1.81402e-05
1.81402e-05
1.81402e-05
1.81402e-05
1.81402e-05
1.81402e-05
1.81402e-05
1.81402e-05
1.81402e-05
1.81402e-05
1.81402e-05
1.81402e-05
1.81402e-05
1.81402e-05
1.81402e-05
1.81402e-05
1.81402e-05
1.81402e-05
1.81416e-05
1.81465e-05
1.81534e-05
1.81615e-05
1.81705e-05
1.81803e-05
1.81908e-05
1.82019e-05
1.82125e-05
1.82207e-05
1.82243e-05
1.82228e-05
1.82168e-05
1.82064e-05
1.81931e-05
1.8179e-05
1.81661e-05
1.81559e-05
1.81487e-05
1.81443e-05
1.8142e-05
1.81409e-05
1.81404e-05
1.81403e-05
1.81402e-05
1.81402e-05
1.81402e-05
1.81402e-05
1.81402e-05
1.81402e-05
1.81402e-05
1.81402e-05
1.81402e-05
1.81402e-05
1.81402e-05
1.81402e-05
1.81402e-05
1.81402e-05
1.81402e-05
1.81402e-05
1.81402e-05
1.81402e-05
1.81402e-05
1.81402e-05
1.81402e-05
1.81402e-05
1.81402e-05
1.81402e-05
1.81402e-05
1.81402e-05
1.81402e-05
1.81411e-05
1.81421e-05
1.81431e-05
1.8144e-05
1.81449e-05
1.81456e-05
1.81463e-05
1.81468e-05
1.8147e-05
1.8147e-05
1.81466e-05
1.81459e-05
1.81449e-05
1.81438e-05
1.81428e-05
1.81419e-05
1.81412e-05
1.81407e-05
1.81405e-05
1.81403e-05
1.81402e-05
1.81402e-05
1.81402e-05
1.81402e-05
1.81402e-05
1.81402e-05
1.81402e-05
1.81402e-05
1.81402e-05
1.81402e-05
1.81402e-05
1.81402e-05
1.81402e-05
1.81402e-05
1.81402e-05
1.81402e-05
1.81402e-05
1.81402e-05
1.81402e-05
1.81402e-05
1.81402e-05
1.81402e-05
1.81402e-05
1.81402e-05
1.81402e-05
1.81402e-05
1.81402e-05
1.81402e-05
1.81402e-05
)
;

boundaryField
{
    AXIS
    {
        type            empty;
    }
    OUTLET
    {
        type            calculated;
        value           uniform 1.81402e-05;
    }
    COFLOW
    {
        type            calculated;
        value           uniform 1.81402e-05;
    }
    PILOT
    {
        type            calculated;
        value           uniform 7.09187e-05;
    }
    FUEL
    {
        type            calculated;
        value           uniform 1.81402e-05;
    }
    WALL
    {
        type            calculated;
        value           nonuniform List<scalar> 
50
(
1.81402e-05
1.81411e-05
1.81421e-05
1.81431e-05
1.8144e-05
1.81449e-05
1.81456e-05
1.81463e-05
1.81468e-05
1.8147e-05
1.8147e-05
1.81466e-05
1.81459e-05
1.81449e-05
1.81438e-05
1.81428e-05
1.81419e-05
1.81412e-05
1.81407e-05
1.81405e-05
1.81403e-05
1.81402e-05
1.81402e-05
1.81402e-05
1.81402e-05
1.81402e-05
1.81402e-05
1.81402e-05
1.81402e-05
1.81402e-05
1.81402e-05
1.81402e-05
1.81402e-05
1.81402e-05
1.81402e-05
1.81402e-05
1.81402e-05
1.81402e-05
1.81402e-05
1.81402e-05
1.81402e-05
1.81402e-05
1.81402e-05
1.81402e-05
1.81402e-05
1.81402e-05
1.81402e-05
1.81402e-05
1.81402e-05
1.81402e-05
)
;
    }
    front
    {
        type            wedge;
    }
    back
    {
        type            wedge;
    }
}


// ************************************************************************* //
