/*--------------------------------*- C++ -*----------------------------------*\
| =========                 |                                                 |
| \\      /  F ield         | OpenFOAM: The Open Source CFD Toolbox           |
|  \\    /   O peration     | Version:  2.4.x                                 |
|   \\  /    A nd           | Web:      www.OpenFOAM.org                      |
|    \\/     M anipulation  |                                                 |
\*---------------------------------------------------------------------------*/
FoamFile
{
    version     2.0;
    format      ascii;
    class       volVectorField;
    location    "0.02";
    object      U;
}
// * * * * * * * * * * * * * * * * * * * * * * * * * * * * * * * * * * * * * //

dimensions      [0 1 -1 0 0 0 0];

internalField   nonuniform List<vector> 
1250
(
(10.4545 -0.0356182 -7.8441e-15)
(11.9002 0.063551 -4.44031e-14)
(12.5883 0.13105 -8.46002e-14)
(12.9148 0.163417 -1.70491e-13)
(12.9923 0.152843 -1.55719e-13)
(12.9285 0.171679 -1.47762e-14)
(12.7936 0.116804 9.47064e-14)
(12.5767 0.162984 9.28882e-14)
(12.3074 0.149255 1.7264e-13)
(11.9907 0.179833 2.49222e-14)
(11.5777 0.167343 1.88593e-13)
(11.0107 0.210045 3.11734e-13)
(10.3478 0.236024 3.88386e-13)
(9.75941 0.177552 4.46124e-13)
(8.86445 0.245203 8.03769e-13)
(7.56015 0.18774 4.95787e-13)
(6.13157 0.126146 -1.47507e-13)
(4.88539 0.0888141 -6.6558e-14)
(3.88036 0.0635565 4.51393e-13)
(3.08917 0.0446887 8.839e-12)
(2.52195 0.031448 8.19942e-13)
(2.11451 0.0224591 2.89615e-13)
(1.82406 0.0143711 5.90051e-13)
(1.63171 0.0125138 7.19304e-13)
(1.49639 0.00872001 1.62318e-12)
(1.41264 0.00613773 1.14829e-12)
(1.35133 0.00456418 6.21651e-13)
(1.30728 0.00337128 2.17361e-13)
(1.27117 0.00253186 -1.55369e-14)
(1.24255 0.00186811 -1.55207e-13)
(1.21909 0.00136854 8.50697e-13)
(1.19991 0.000971936 1.03184e-12)
(1.18431 0.000655638 3.19945e-13)
(1.17163 0.00041777 2.54893e-13)
(1.16118 0.000257824 1.0895e-12)
(1.15218 0.000163498 1.32449e-12)
(1.14409 0.000113462 -1.35406e-11)
(1.13656 7.83231e-05 -1.98095e-12)
(1.1297 4.50596e-05 3.29661e-11)
(1.12314 4.67734e-05 6.58537e-12)
(1.11681 6.01078e-05 2.31397e-12)
(1.11071 5.89907e-05 1.0295e-12)
(1.10504 4.98776e-05 9.84633e-13)
(1.09983 4.81328e-05 -2.76812e-11)
(1.09494 6.64261e-05 -4.53907e-12)
(1.09032 6.30567e-05 -1.86432e-12)
(1.08658 5.10686e-05 3.78583e-13)
(1.08413 2.79111e-05 4.46991e-13)
(1.08311 1.36546e-05 -2.71556e-12)
(1.0825 3.89282e-07 1.75837e-11)
(10.5662 -0.0970402 -2.16669e-14)
(12.0648 0.196206 -1.31843e-13)
(12.6512 0.362917 -2.47492e-13)
(12.9157 0.434794 -4.98407e-13)
(12.9446 0.471629 -3.32948e-13)
(12.8572 0.441015 1.61816e-14)
(12.6914 0.422783 2.30144e-13)
(12.4635 0.426189 2.69132e-13)
(12.2112 0.463621 3.68245e-13)
(11.8973 0.472375 4.41369e-14)
(11.4895 0.504895 4.44599e-13)
(10.9254 0.541216 9.26891e-13)
(10.283 0.601886 1.13795e-12)
(9.67503 0.658665 9.43198e-13)
(8.7947 0.627468 2.36208e-12)
(7.52732 0.481463 1.41171e-12)
(6.1134 0.320744 -4.77522e-13)
(4.88139 0.241242 -1.94787e-13)
(3.88085 0.163305 1.12641e-12)
(3.08692 0.116287 1.03446e-11)
(2.51768 0.0817 1.89097e-12)
(2.10884 0.0583927 7.75961e-13)
(1.8155 0.039813 1.5246e-12)
(1.6223 0.0318772 2.05915e-12)
(1.48719 0.022248 4.69369e-12)
(1.40273 0.015762 3.22504e-12)
(1.34039 0.0117282 1.73043e-12)
(1.2956 0.00868684 5.93233e-13)
(1.25883 0.00653132 -5.62626e-14)
(1.22961 0.00484657 -4.42346e-13)
(1.20554 0.00357513 2.48764e-12)
(1.18576 0.00256845 2.93646e-12)
(1.16955 0.00176408 8.59506e-13)
(1.15628 0.0011544 7.22521e-13)
(1.14527 0.00074242 3.14578e-12)
(1.13572 0.000498766 3.68898e-12)
(1.1271 0.000369957 -1.87277e-11)
(1.11905 0.00027795 -4.83972e-12)
(1.11167 0.000229814 3.90878e-11)
(1.10461 0.000225143 1.25302e-11)
(1.09782 0.000229132 5.60278e-12)
(1.09131 0.000226067 2.39636e-12)
(1.08528 0.000215386 1.97706e-12)
(1.07971 0.000222333 -2.64756e-11)
(1.07451 0.000244292 -1.03028e-11)
(1.06965 0.000224227 -4.14172e-12)
(1.06572 0.000106702 1.16192e-12)
(1.06312 -3.48802e-05 1.21592e-12)
(1.06187 -7.48629e-05 -7.09324e-12)
(1.06116 -2.40762e-05 3.00529e-11)
(10.7105 -0.155371 -3.33066e-14)
(12.2832 0.441359 -2.65745e-13)
(12.7195 0.665548 -4.73567e-13)
(12.8482 0.741587 -1.01263e-12)
(12.7948 0.742288 -5.90717e-13)
(12.6513 0.712358 4.36185e-13)
(12.4431 0.689704 5.68608e-13)
(12.2249 0.700431 4.90134e-13)
(11.9763 0.723156 6.85706e-13)
(11.6599 0.73984 -4.43985e-14)
(11.2591 0.769102 1.17484e-12)
(10.711 0.845164 1.91002e-12)
(10.0764 0.949275 2.08312e-12)
(9.48855 0.977518 1.75249e-12)
(8.61035 0.946899 4.59121e-12)
(7.38356 0.738574 2.32453e-12)
(6.02806 0.506579 -1.14641e-12)
(4.8275 0.374871 -3.53634e-13)
(3.84378 0.259969 1.3555e-12)
(3.0642 0.184288 9.72795e-12)
(2.5022 0.131163 1.52573e-12)
(2.09749 0.0929473 1.06993e-12)
(1.80846 0.0624094 2.69289e-12)
(1.61751 0.0502277 3.55379e-12)
(1.48331 0.0354347 8.39005e-12)
(1.39947 0.025321 5.11645e-12)
(1.33706 0.0188533 2.65574e-12)
(1.29226 0.0139712 8.33443e-13)
(1.2555 0.0105085 -1.71719e-13)
(1.22625 0.00783097 -7.47855e-13)
(1.20211 0.00580951 4.55659e-12)
(1.18223 0.00421086 4.91959e-12)
(1.1659 0.00293165 1.09505e-12)
(1.15247 0.00195834 1.20214e-12)
(1.14131 0.00129788 5.59545e-12)
(1.13159 0.000907176 5.8869e-12)
(1.1228 0.000695206 -1.84597e-11)
(1.11458 0.000544258 -5.6984e-12)
(1.10708 0.000444227 4.62079e-11)
(1.0999 0.000430095 1.92545e-11)
(1.09299 0.000437823 8.96781e-12)
(1.08631 0.000419883 3.93725e-12)
(1.08013 0.000383127 3.0286e-12)
(1.07448 0.000375945 -2.58791e-11)
(1.06923 0.000404892 -1.59525e-11)
(1.06431 0.000375181 -6.48197e-12)
(1.06022 0.000225207 2.39908e-12)
(1.05754 4.04643e-05 1.87062e-12)
(1.05629 -3.56367e-05 -1.06217e-11)
(1.0556 -1.01719e-05 2.62638e-11)
(10.6643 0.113628 -4.64362e-14)
(12.5095 0.920765 -5.65599e-13)
(12.655 1.10991 -9.12139e-13)
(12.5614 1.11168 -2.37345e-12)
(12.3943 1.08646 -3.1786e-13)
(12.2075 1.04098 2.11598e-12)
(12.0063 1.01203 1.05377e-12)
(11.7957 1.00062 7.01098e-13)
(11.5583 1.00597 9.98797e-13)
(11.2588 1.01866 -3.79949e-13)
(10.8772 1.06151 3.13453e-12)
(10.3543 1.15179 3.59144e-12)
(9.74855 1.29342 3.31359e-12)
(9.1646 1.36377 2.63457e-12)
(8.32306 1.26177 8.46113e-12)
(7.14326 0.973193 3.07179e-12)
(5.87218 0.688326 -2.39367e-12)
(4.72543 0.508355 -4.55217e-13)
(3.77604 0.354882 1.36698e-12)
(3.02313 0.252823 6.67535e-12)
(2.47578 0.182543 -3.95919e-15)
(2.07936 0.127958 1.23724e-12)
(1.79917 0.0850696 3.85019e-12)
(1.61256 0.0691127 5.26566e-12)
(1.47949 0.0493862 1.36194e-11)
(1.39738 0.0353563 6.4403e-12)
(1.33586 0.0263438 3.21895e-12)
(1.29163 0.0195135 8.26114e-13)
(1.25537 0.0146734 -4.12662e-13)
(1.22645 0.01095 -1.05948e-12)
(1.20256 0.00813882 7.09504e-12)
(1.18283 0.00591537 6.9232e-12)
(1.16661 0.00413612 4.45812e-13)
(1.15323 0.00277609 1.75814e-12)
(1.14212 0.00185533 8.89611e-12)
(1.13239 0.00131347 7.76755e-12)
(1.1236 0.0010144 -1.36767e-11)
(1.11539 0.000794832 -4.15782e-12)
(1.1079 0.000654798 4.4864e-11)
(1.10074 0.000635584 2.25588e-11)
(1.09383 0.000650951 1.12667e-11)
(1.08713 0.000631407 5.08393e-12)
(1.08092 0.000571382 3.51896e-12)
(1.0753 0.000549904 -1.43817e-11)
(1.07008 0.000588648 -2.05741e-11)
(1.06518 0.000556911 -7.68482e-12)
(1.06105 0.000334233 4.3882e-12)
(1.05837 3.62662e-05 2.29439e-12)
(1.05714 -7.74845e-05 -1.60424e-11)
(1.05646 -2.9427e-05 1.5957e-11)
(10.0055 0.753931 -7.95393e-14)
(12.1634 1.79676 -1.62697e-12)
(11.9875 1.69147 -1.48304e-12)
(11.6641 1.54505 -1.1974e-12)
(11.5236 1.47153 -1.07148e-12)
(11.3774 1.37817 2.94166e-13)
(11.2403 1.30162 6.59503e-13)
(11.0951 1.25517 7.14722e-13)
(10.9191 1.25134 1.21907e-12)
(10.6702 1.26458 -9.70513e-13)
(10.3267 1.31718 8.80858e-12)
(9.85094 1.4303 6.12096e-12)
(9.29836 1.60694 4.72047e-12)
(8.739 1.67618 3.59808e-12)
(7.93552 1.50062 5.77971e-12)
(6.83131 1.15719 3.05301e-12)
(5.65815 0.845002 -7.44345e-13)
(4.58237 0.623794 -2.276e-13)
(3.68143 0.440804 1.40907e-12)
(2.96498 0.315408 6.12548e-12)
(2.43851 0.230278 1.78875e-12)
(2.05337 0.160543 1.57782e-12)
(1.78426 0.108379 5.67863e-13)
(1.6057 0.0866107 7.1818e-12)
(1.4741 0.0627224 9.58057e-12)
(1.39446 0.0448586 6.40022e-12)
(1.33444 0.0334329 3.29473e-12)
(1.29115 0.0247621 4.88461e-13)
(1.25567 0.0186168 -8.04154e-13)
(1.2273 0.0139081 -1.33959e-12)
(1.20382 0.0103514 3.86794e-12)
(1.18439 0.00753634 8.76923e-12)
(1.16837 0.00528161 6.96674e-12)
(1.15514 0.00355542 2.59579e-12)
(1.14413 0.00238773 6.18736e-12)
(1.13445 0.00170058 9.01481e-12)
(1.12571 0.00131598 -1.37466e-11)
(1.11754 0.00103357 -7.26438e-12)
(1.11008 0.000848845 4.09035e-11)
(1.10297 0.000823083 2.33003e-11)
(1.09609 0.000846464 1.24206e-11)
(1.08944 0.000823854 5.77709e-12)
(1.08325 0.000739433 3.70609e-12)
(1.07767 0.000702521 -8.59323e-12)
(1.07251 0.000749107 -1.45488e-11)
(1.06767 0.000719011 -7.50055e-12)
(1.06354 0.000439645 -3.9138e-12)
(1.06087 5.51134e-05 2.20189e-12)
(1.05968 -9.23129e-05 -2.21456e-11)
(1.05902 -3.44468e-05 5.08058e-12)
(7.58472 0.406399 -3.31869e-13)
(8.45498 2.31242 -3.74741e-12)
(9.40327 1.90042 -2.31384e-12)
(9.67835 1.79794 -2.06717e-12)
(9.93287 1.66284 -1.56856e-12)
(10.0501 1.55065 -2.76299e-13)
(10.116 1.47309 5.85222e-13)
(10.1102 1.42377 9.31578e-13)
(10.0481 1.42097 1.27956e-12)
(9.88676 1.44997 -8.17007e-13)
(9.61172 1.53067 1.0408e-11)
(9.21243 1.67721 7.6054e-12)
(8.73254 1.86257 5.82671e-12)
(8.22051 1.90344 4.43178e-12)
(7.46839 1.66847 5.13158e-12)
(6.46403 1.29465 2.90344e-12)
(5.39857 0.965211 -1.33589e-13)
(4.40548 0.718857 -3.30665e-14)
(3.56457 0.516255 1.48829e-12)
(2.89198 0.371117 6.70321e-12)
(2.3911 0.274204 2.6002e-12)
(2.02002 0.194673 1.93598e-12)
(1.76324 0.134925 1.33737e-12)
(1.59612 0.103621 4.57378e-12)
(1.46704 0.0756597 7.54122e-12)
(1.39038 0.0539995 6.00928e-12)
(1.33234 0.0402367 2.946e-12)
(1.29028 0.0298017 -2.30069e-13)
(1.25581 0.0224016 -1.33466e-12)
(1.22816 0.0167514 -1.61728e-12)
(1.20522 0.0124796 2.15775e-12)
(1.18619 0.00909482 1.14002e-11)
(1.17047 0.0063816 5.69731e-12)
(1.15744 0.00430194 2.80544e-12)
(1.14655 0.00289828 5.13935e-12)
(1.13696 0.00207177 5.82516e-12)
(1.12828 0.00160492 -1.33263e-11)
(1.12015 0.00126075 -7.94702e-12)
(1.11274 0.00103387 3.53669e-11)
(1.10567 0.00100181 2.22074e-11)
(1.09884 0.00103183 1.25721e-11)
(1.09225 0.00100831 6.02144e-12)
(1.08611 0.000902094 3.71828e-12)
(1.08058 0.000846562 -5.81467e-12)
(1.07548 0.000899506 -1.08408e-11)
(1.07073 0.000874908 -6.90552e-12)
(1.06663 0.000543729 -1.52271e-12)
(1.06394 6.36594e-05 2.3972e-12)
(1.06277 -0.000122907 -2.22841e-11)
(1.06215 -4.60834e-05 -7.11199e-13)
(4.0024 -0.656942 -1.59687e-12)
(5.16365 0.387206 -3.6886e-12)
(6.54421 1.03126 -2.62157e-12)
(7.39978 1.40597 -3.1761e-12)
(8.0284 1.48265 -1.6166e-12)
(8.43864 1.48698 4.16669e-13)
(8.74252 1.47333 1.30483e-12)
(8.92495 1.46363 1.48779e-12)
(8.98775 1.4904 1.504e-12)
(8.93963 1.54795 3.09814e-13)
(8.7682 1.67314 8.90227e-12)
(8.45824 1.85133 8.01703e-12)
(8.06879 2.02398 6.53461e-12)
(7.62177 2.03298 4.89836e-12)
(6.94504 1.7667 5.44021e-12)
(6.05629 1.3862 2.65032e-12)
(5.10688 1.05893 -3.06935e-13)
(4.2062 0.792612 5.12435e-14)
(3.43007 0.580262 1.47779e-12)
(2.80598 0.420993 6.53292e-12)
(2.3361 0.313661 2.52773e-12)
(1.98233 0.228535 2.18271e-12)
(1.74023 0.1649 2.29603e-12)
(1.58234 0.119963 3.22557e-12)
(1.45847 0.0877317 6.95539e-12)
(1.3853 0.0625461 5.63797e-12)
(1.32963 0.0465966 2.19786e-12)
(1.28905 0.0345185 -1.37313e-12)
(1.25579 0.0259424 -1.94399e-12)
(1.229 0.0194161 -1.86371e-12)
(1.20672 0.014476 1.6859e-12)
(1.18818 0.0105561 1.02414e-11)
(1.17283 0.0074115 3.8983e-12)
(1.16006 0.00500379 2.6717e-12)
(1.14932 0.00338188 4.96323e-12)
(1.13981 0.00242358 2.90838e-12)
(1.13121 0.00187831 -1.11846e-11)
(1.12315 0.00147627 -7.07812e-12)
(1.11578 0.00120744 2.98132e-11)
(1.10877 0.00116811 1.98768e-11)
(1.10201 0.00120324 1.19572e-11)
(1.09547 0.00117843 5.87096e-12)
(1.08939 0.00105202 3.61041e-12)
(1.08393 0.000978239 -4.81911e-12)
(1.07891 0.00103482 -8.61348e-12)
(1.07423 0.00101631 -6.19821e-12)
(1.0702 0.00064403 8.61972e-13)
(1.06747 7.55199e-05 2.52952e-12)
(1.0663 -0.000156228 -1.87136e-11)
(1.06573 -6.16777e-05 -2.97591e-12)
(2.80258 -2.39739 -4.87373e-12)
(2.79508 -0.852179 -3.13975e-12)
(4.12606 0.148354 -2.44767e-12)
(5.24332 0.786997 -5.27942e-12)
(6.13781 1.08208 -2.47091e-13)
(6.78701 1.23349 3.02797e-12)
(7.28979 1.31195 2.96448e-12)
(7.63727 1.37623 2.42543e-12)
(7.84631 1.45133 2.2191e-12)
(7.90872 1.56002 1.02795e-12)
(7.83642 1.72618 6.49416e-12)
(7.63408 1.92758 8.34507e-12)
(7.34938 2.08789 6.6117e-12)
(6.97152 2.06734 4.94569e-12)
(6.39751 1.7992 6.57111e-12)
(5.62843 1.43994 2.09535e-12)
(4.79623 1.1252 -1.1149e-12)
(3.98898 0.846482 1.07513e-13)
(3.28305 0.629073 1.40549e-12)
(2.70984 0.463195 4.88559e-12)
(2.27431 0.347498 1.96136e-12)
(1.94079 0.257745 2.36935e-12)
(1.71373 0.190222 2.97639e-12)
(1.56563 0.135101 2.46152e-12)
(1.44867 0.0987813 7.86267e-12)
(1.3794 0.0704414 5.26189e-12)
(1.32645 0.0524754 9.65065e-13)
(1.28755 0.0388857 -2.98852e-12)
(1.25566 0.0292178 -2.50104e-12)
(1.22987 0.0218846 -2.00107e-12)
(1.20836 0.0163261 2.30279e-12)
(1.1904 0.0119096 6.46465e-12)
(1.17548 0.00836595 1.23309e-12)
(1.163 0.00565763 2.51953e-12)
(1.15243 0.0038364 5.56838e-12)
(1.14303 0.00275502 -5.35925e-14)
(1.13452 0.00213521 -7.89051e-12)
(1.12653 0.00167886 -5.02756e-12)
(1.11922 0.00136898 2.30923e-11)
(1.11228 0.00132034 1.6756e-11)
(1.10559 0.00136201 1.08266e-11)
(1.09912 0.00133746 5.40622e-12)
(1.0931 0.00118839 3.40618e-12)
(1.08773 0.00109493 -5.06273e-12)
(1.0828 0.00115704 -7.35292e-12)
(1.07822 0.00114607 -5.46207e-12)
(1.07423 0.000741887 3.5939e-12)
(1.07149 9.14961e-05 2.32908e-12)
(1.07031 -0.000191833 -1.19182e-11)
(1.06977 -8.04984e-05 -3.20328e-12)
(2.66298 -1.4474 -4.23175e-12)
(1.61351 -1.13146 -2.00942e-12)
(2.43124 -0.561089 -1.79337e-12)
(3.53989 0.12599 -3.14362e-12)
(4.51749 0.579593 1.32576e-12)
(5.29195 0.866277 3.73988e-12)
(5.91682 1.04703 4.92759e-12)
(6.38321 1.18614 3.21987e-12)
(6.70405 1.32317 2.87263e-12)
(6.87018 1.48028 1.77564e-12)
(6.89468 1.68761 7.70038e-12)
(6.79832 1.90788 1.01809e-11)
(6.61809 2.0567 6.38272e-12)
(6.32263 2.01791 4.73986e-12)
(5.84712 1.77556 4.97894e-12)
(5.19704 1.46233 6.41058e-13)
(4.47488 1.16171 -1.66384e-13)
(3.76037 0.882773 3.73819e-13)
(3.12747 0.66476 1.36895e-12)
(2.60692 0.497475 4.37506e-12)
(2.20757 0.375634 2.72453e-12)
(1.89626 0.282298 2.67977e-12)
(1.68471 0.211683 7.87871e-13)
(1.54688 0.148712 1.78676e-12)
(1.43794 0.108656 5.04128e-12)
(1.37287 0.0775929 4.47237e-12)
(1.32288 0.0578091 -7.93164e-13)
(1.28583 0.0428565 -5.1952e-12)
(1.25546 0.0321915 -2.76419e-12)
(1.23077 0.0241277 -1.93036e-12)
(1.21013 0.0180064 -9.95595e-15)
(1.19282 0.0131381 3.79506e-12)
(1.17838 0.00923372 1.81496e-12)
(1.16621 0.00625773 2.8005e-12)
(1.15583 0.00425836 2.96378e-12)
(1.14655 0.00306347 -1.80247e-13)
(1.13814 0.00237314 -6.14913e-12)
(1.13023 0.00186679 -5.60057e-12)
(1.12298 0.00151672 1.48456e-11)
(1.11612 0.0014575 1.33103e-11)
(1.10951 0.00150753 9.43196e-12)
(1.10311 0.00148195 4.71502e-12)
(1.09718 0.00130814 3.10975e-12)
(1.09189 0.00119346 -6.28153e-12)
(1.08707 0.0012613 -6.67384e-12)
(1.0826 0.00126368 -4.64834e-12)
(1.07867 0.000834781 1.59291e-12)
(1.07594 0.000107778 1.60298e-12)
(1.07474 -0.000226028 -7.89363e-12)
(1.07418 -9.9068e-05 -2.54854e-12)
(2.14178 -1.05335 -3.93709e-13)
(1.25494 -0.997118 -7.09552e-13)
(1.60795 -0.829762 -9.24607e-13)
(2.39999 -0.346857 -1.70649e-12)
(3.29347 0.121255 -2.66748e-13)
(4.06895 0.475005 1.37668e-12)
(4.73216 0.729273 2.60346e-12)
(5.25925 0.934205 3.12958e-12)
(5.6489 1.12587 3.4796e-12)
(5.89339 1.33186 2.63296e-12)
(6.00137 1.57183 5.39593e-12)
(6.00023 1.80498 7.16623e-12)
(5.90358 1.94552 5.50249e-12)
(5.69922 1.91658 4.38031e-12)
(5.31379 1.71897 4.11299e-12)
(4.77345 1.45144 1.53734e-12)
(4.15187 1.17076 6.08623e-13)
(3.52763 0.903918 6.86025e-13)
(2.96746 0.691266 1.31107e-12)
(2.4994 0.526074 3.2119e-12)
(2.1367 0.400505 3.32319e-12)
(1.84932 0.302533 3.07223e-12)
(1.65384 0.229689 1.49832e-12)
(1.5266 0.160605 1.6951e-12)
(1.42639 0.11728 3.61238e-12)
(1.36569 0.0839523 3.74141e-12)
(1.31884 0.0625619 -5.61236e-14)
(1.28376 0.0464033 -4.23131e-12)
(1.25498 0.0348417 -2.32901e-12)
(1.23148 0.0261264 -1.62306e-12)
(1.21177 0.0195013 -1.699e-12)
(1.19517 0.0142306 2.13324e-12)
(1.18124 0.010009 2.02801e-12)
(1.1694 0.00680085 3.33709e-12)
(1.15921 0.00464582 9.27065e-13)
(1.15006 0.00334787 -7.62777e-13)
(1.14174 0.00259166 -2.73984e-12)
(1.13391 0.0020392 -5.652e-12)
(1.12672 0.00164999 1.07293e-11)
(1.11993 0.00157792 1.01553e-11)
(1.11341 0.00163757 7.9974e-12)
(1.10709 0.00161246 3.87708e-12)
(1.10123 0.00141462 2.7165e-12)
(1.09601 0.00127774 -3.32593e-12)
(1.09128 0.00134485 -6.23034e-12)
(1.08694 0.0013626 -3.76797e-12)
(1.0831 0.000919868 3.64296e-13)
(1.08037 0.000126114 6.4801e-13)
(1.07912 -0.000254203 -5.64681e-12)
(1.07855 -0.000115121 -1.54244e-12)
(1.08295 -0.0767649 -1.77517e-14)
(1.32877 -0.463404 3.16353e-14)
(1.37544 -0.666943 -1.70591e-13)
(1.79312 -0.510695 -7.78659e-13)
(2.46805 -0.1929 -1.10895e-12)
(3.14288 0.140491 -9.02804e-13)
(3.76828 0.417071 5.85858e-13)
(4.29725 0.659767 3.4322e-12)
(4.7132 0.891433 4.59687e-12)
(5.00398 1.13404 3.37908e-12)
(5.17357 1.39856 4.1733e-12)
(5.24853 1.64193 5.00204e-12)
(5.22235 1.78491 4.4656e-12)
(5.092 1.7775 3.88455e-12)
(4.79423 1.64008 3.63925e-12)
(4.35166 1.4141 1.82128e-12)
(3.82694 1.15784 1.18889e-12)
(3.2906 0.91255 9.89861e-13)
(2.80206 0.70989 1.26144e-12)
(2.38664 0.548026 2.36984e-12)
(2.06041 0.422204 4.13638e-12)
(1.79841 0.319127 3.47127e-12)
(1.62043 0.244779 1.84848e-12)
(1.50432 0.170964 1.87724e-12)
(1.41355 0.124829 3.00908e-12)
(1.35739 0.0896637 3.22415e-12)
(1.31384 0.0668408 3.73912e-12)
(1.28085 0.0496063 -1.1634e-12)
(1.25377 0.0372281 -1.26517e-12)
(1.23152 0.027925 -1.12321e-12)
(1.2128 0.0208443 5.35408e-13)
(1.19694 0.0152139 1.32443e-12)
(1.18353 0.0107137 2.2315e-12)
(1.17202 0.00730512 4.10263e-12)
(1.16201 0.00501361 -1.31151e-12)
(1.15296 0.00362059 -1.51495e-12)
(1.14471 0.00280154 1.03101e-13)
(1.13695 0.00220469 -5.9317e-12)
(1.1298 0.00177924 4.39452e-12)
(1.12304 0.00169181 7.23895e-12)
(1.11658 0.00175415 6.65887e-12)
(1.11036 0.00173119 2.90336e-12)
(1.10456 0.0015112 2.32816e-12)
(1.09941 0.00135235 -1.30834e-12)
(1.09476 0.00141609 -6.30851e-12)
(1.09054 0.00144555 -2.82012e-12)
(1.08677 0.000998809 -4.97177e-13)
(1.08403 0.000150499 -4.50408e-13)
(1.08273 -0.000275539 -4.4822e-12)
(1.08213 -0.000129203 -3.52112e-13)
(0.967457 -0.0214574 6.04989e-14)
(1.21574 -0.218239 3.85474e-13)
(1.27796 -0.370299 3.04345e-13)
(1.52691 -0.419118 -4.15794e-13)
(1.96687 -0.313433 -2.27275e-12)
(2.48954 -0.0897423 -3.53563e-12)
(3.01545 0.152626 -1.05294e-12)
(3.49401 0.399715 5.5977e-12)
(3.89462 0.649102 7.07846e-12)
(4.19738 0.909729 3.77631e-12)
(4.40232 1.18545 3.23085e-12)
(4.52616 1.43418 3.26795e-12)
(4.55472 1.58559 3.53032e-12)
(4.47938 1.61071 3.27414e-12)
(4.26818 1.53218 3.46277e-12)
(3.91529 1.34978 1.72085e-12)
(3.48657 1.12465 1.73098e-12)
(3.03942 0.907162 1.2806e-12)
(2.623 0.719126 1.2082e-12)
(2.26277 0.562837 1.66361e-12)
(1.97524 0.43927 3.35058e-12)
(1.74124 0.332434 3.80696e-12)
(1.58305 0.257366 1.76229e-12)
(1.47907 0.180019 2.28073e-12)
(1.39877 0.131507 2.97452e-12)
(1.3476 0.0949263 3.01439e-12)
(1.3077 0.0707942 4.00675e-12)
(1.27707 0.0525797 1.07647e-12)
(1.25189 0.0394354 -1.94443e-14)
(1.23105 0.0295879 -4.5824e-13)
(1.21344 0.022085 2.7996e-12)
(1.19841 0.0161286 6.92393e-13)
(1.18557 0.0113827 2.6676e-12)
(1.1744 0.00780076 5.15768e-12)
(1.16457 0.00538793 -1.75693e-12)
(1.15563 0.00390411 -2.088e-12)
(1.14744 0.00302217 3.19399e-12)
(1.13972 0.00237903 -7.25055e-12)
(1.13261 0.00191649 -4.08427e-14)
(1.12589 0.00181016 4.93747e-12)
(1.11948 0.00186824 5.5268e-12)
(1.11333 0.0018483 1.71214e-12)
(1.1076 0.00160938 2.03319e-12)
(1.10251 0.00142267 1.0084e-13)
(1.09794 0.00147539 -7.29342e-12)
(1.09385 0.00152163 -1.66907e-12)
(1.09015 0.00108277 -1.31225e-12)
(1.0874 0.000184397 -1.77018e-12)
(1.08603 -0.000289938 -3.99841e-12)
(1.0854 -0.000141238 1.14533e-12)
(0.953561 0.0260116 1.17207e-13)
(1.07305 -0.0776097 8.69033e-13)
(1.18686 -0.191574 4.90623e-13)
(1.39104 -0.291047 -5.35679e-13)
(1.69136 -0.300615 -4.37409e-12)
(2.066 -0.194112 -7.44239e-12)
(2.47327 -0.0219472 -2.05744e-12)
(2.86314 0.189468 4.50443e-12)
(3.20754 0.42622 3.89703e-12)
(3.48736 0.685705 2.64552e-12)
(3.69774 0.958326 1.99686e-12)
(3.84085 1.2044 1.42126e-12)
(3.90908 1.36869 2.8607e-12)
(3.8723 1.42732 2.58988e-12)
(3.73113 1.38918 4.09199e-12)
(3.46407 1.25418 8.80069e-13)
(3.12981 1.07152 2.53791e-12)
(2.77171 0.885988 1.53252e-12)
(2.42856 0.717801 1.12073e-12)
(2.12623 0.571094 9.0651e-13)
(1.87946 0.44935 3.20505e-12)
(1.67746 0.341322 4.49802e-12)
(1.54173 0.266137 9.46793e-13)
(1.45068 0.187206 3.22904e-12)
(1.382 0.13701 3.46457e-12)
(1.33644 0.0995772 3.10955e-12)
(1.30073 0.0743047 4.93825e-12)
(1.27286 0.0552391 2.73433e-12)
(1.24988 0.0413995 1.15139e-12)
(1.2307 0.0310656 3.35965e-13)
(1.21439 0.023187 1.32145e-13)
(1.20032 0.0169515 -5.99445e-13)
(1.18815 0.0120051 3.66765e-12)
(1.1774 0.00828591 6.59708e-12)
(1.16779 0.00577183 1.65875e-12)
(1.15898 0.00420308 -2.40018e-12)
(1.15088 0.00325808 2.05574e-12)
(1.14324 0.00256573 -1.10934e-11)
(1.13618 0.00206281 -2.9355e-12)
(1.12952 0.00193783 3.80609e-12)
(1.12318 0.0019892 4.75886e-12)
(1.11711 0.00196312 1.32551e-13)
(1.11148 0.00170236 1.99275e-12)
(1.10647 0.00149012 1.0001e-12)
(1.10198 0.00152178 -4.55694e-12)
(1.09804 0.00158191 3.61751e-14)
(1.09445 0.00116725 -2.50777e-12)
(1.09169 0.000232074 -3.47284e-12)
(1.09024 -0.000292534 -3.96205e-12)
(1.08957 -0.000150136 3.29346e-12)
(0.933343 0.0227948 6.59942e-14)
(1.02244 -0.0255952 3.08533e-13)
(1.13233 -0.102958 2.37291e-13)
(1.30557 -0.193613 -9.41014e-13)
(1.53321 -0.244011 -8.84053e-12)
(1.80051 -0.207746 -5.92987e-12)
(2.09222 -0.103801 -4.24762e-13)
(2.38498 0.0546567 1.72429e-13)
(2.6586 0.257418 9.33715e-13)
(2.89345 0.494518 9.27412e-13)
(3.08209 0.747268 3.79176e-13)
(3.22171 0.979604 -1.53024e-12)
(3.30209 1.15028 -1.65897e-13)
(3.29186 1.22604 1.33253e-12)
(3.20323 1.22153 3.11591e-12)
(3.01714 1.13704 1.56633e-12)
(2.76913 0.999797 2.05503e-12)
(2.49414 0.850315 1.56014e-12)
(2.22285 0.705516 9.56835e-13)
(1.97749 0.570736 -2.26971e-13)
(1.77415 0.455501 1.67266e-12)
(1.61141 0.345858 2.79562e-12)
(1.4975 0.269877 1.63105e-12)
(1.41973 0.192212 6.06309e-12)
(1.36329 0.140868 4.40072e-12)
(1.32393 0.103198 3.42571e-12)
(1.29292 0.0770402 7.14203e-12)
(1.26824 0.0573276 3.87818e-12)
(1.24776 0.0429262 2.01325e-12)
(1.23048 0.0322069 1.04426e-12)
(1.21565 0.0240369 -2.9395e-12)
(1.20269 0.0176018 -2.02219e-12)
(1.19128 0.0125266 5.35885e-13)
(1.18101 0.0087251 3.07256e-12)
(1.17169 0.0061416 3.30778e-12)
(1.16306 0.00450085 -3.82954e-12)
(1.15507 0.00349561 1.85685e-12)
(1.14754 0.00275359 -1.37105e-11)
(1.14055 0.00220472 -3.45204e-12)
(1.13398 0.00205219 4.64e-12)
(1.12775 0.00209836 4.36296e-12)
(1.12181 0.0020711 -2.15532e-12)
(1.11629 0.00178671 2.47212e-12)
(1.11138 0.00154322 1.51908e-12)
(1.107 0.00154683 -3.08121e-12)
(1.1032 0.00162421 -2.21607e-12)
(1.09972 0.00125078 -4.9646e-12)
(1.09699 0.000293404 -5.8601e-12)
(1.09546 -0.000279903 -4.04e-12)
(1.09473 -0.000153453 6.68192e-12)
(0.921599 0.0176535 4.09882e-14)
(0.987899 0.00120917 1.63359e-13)
(1.08548 -0.0456049 1.93628e-13)
(1.23188 -0.123203 -5.76884e-13)
(1.40895 -0.181506 -3.60099e-12)
(1.60869 -0.181539 -4.32051e-12)
(1.81675 -0.123115 -2.79452e-12)
(2.02712 -0.00741783 -3.72105e-12)
(2.22855 0.153716 -1.29175e-12)
(2.40871 0.351387 -7.00477e-13)
(2.55972 0.567692 -1.35688e-12)
(2.67822 0.772905 -1.37653e-12)
(2.75312 0.934741 -6.95248e-13)
(2.76296 1.02366 3.55506e-13)
(2.70966 1.04761 1.00652e-12)
(2.58935 1.0063 1.25525e-12)
(2.41639 0.914765 2.09997e-12)
(2.21755 0.800052 1.58556e-12)
(2.01222 0.678735 8.08785e-13)
(1.8231 0.562075 -5.73196e-13)
(1.65912 0.455287 9.7409e-13)
(1.53245 0.350496 1.64914e-12)
(1.44966 0.268936 2.21629e-12)
(1.38691 0.19408 3.77921e-12)
(1.34252 0.142563 4.62141e-12)
(1.31005 0.105292 3.72122e-12)
(1.28416 0.0786355 4.88843e-12)
(1.26308 0.058573 3.68999e-12)
(1.24538 0.0438197 2.32051e-12)
(1.23021 0.0328672 1.41253e-12)
(1.21699 0.0245321 -9.39236e-13)
(1.20523 0.0180104 -2.90566e-12)
(1.19464 0.0129028 -1.52589e-12)
(1.18492 0.00908941 3.74205e-13)
(1.17592 0.00647751 4.68873e-12)
(1.16752 0.00478342 -1.65799e-12)
(1.15969 0.00372374 -2.68167e-12)
(1.15229 0.00293575 -1.03264e-11)
(1.14539 0.00234607 -1.47067e-13)
(1.13888 0.00216152 2.9391e-12)
(1.13274 0.00218291 3.70138e-12)
(1.12697 0.00214257 -6.04434e-13)
(1.12163 0.00184352 7.47223e-13)
(1.11685 0.00157821 1.51043e-12)
(1.11258 0.00155073 -7.90143e-12)
(1.1089 0.00163696 -4.79695e-12)
(1.10558 0.00131527 -4.29702e-12)
(1.1029 0.000361582 -4.13165e-12)
(1.10125 -0.000251468 -3.54265e-12)
(1.10046 -0.000149696 8.62079e-12)
(0.913516 0.0125301 4.94031e-14)
(0.961638 0.00998326 2.22659e-13)
(1.04356 -0.0204198 5.45005e-13)
(1.16432 -0.081151 -1.479e-13)
(1.30375 -0.130621 -3.21805e-12)
(1.45134 -0.14179 -5.01389e-12)
(1.60097 -0.10742 -3.24511e-12)
(1.74933 -0.0253575 -2.617e-12)
(1.89027 0.097904 -1.78583e-12)
(2.01884 0.254593 -1.73376e-12)
(2.1292 0.430472 -4.05563e-12)
(2.2199 0.603871 -2.03002e-12)
(2.28079 0.748413 -9.77186e-13)
(2.29904 0.841943 -2.75811e-13)
(2.27092 0.884063 -8.74298e-13)
(2.20019 0.874087 8.7381e-13)
(2.08703 0.82041 3.31681e-12)
(1.94947 0.736149 1.67249e-12)
(1.80522 0.638023 5.67625e-13)
(1.66805 0.539439 -2.16793e-12)
(1.54522 0.436044 1.4333e-12)
(1.4562 0.347835 1.00494e-12)
(1.3989 0.262186 3.92202e-12)
(1.35326 0.191399 2.93424e-12)
(1.32041 0.141419 5.81859e-12)
(1.29516 0.10518 3.82418e-12)
(1.27464 0.0785813 3.77474e-12)
(1.25743 0.0585833 3.16568e-12)
(1.24266 0.0437916 2.2312e-12)
(1.22971 0.0328363 1.5085e-12)
(1.21815 0.0245269 -2.3244e-13)
(1.20763 0.0180717 -5.01252e-12)
(1.1979 0.0130586 -2.89326e-12)
(1.18875 0.009323 -1.23226e-12)
(1.18014 0.00673718 1.83869e-12)
(1.17201 0.00501924 -2.91805e-12)
(1.16437 0.00391857 -2.63394e-12)
(1.15714 0.00309424 -3.84938e-12)
(1.15036 0.00247565 2.1032e-12)
(1.14395 0.0022596 2.49484e-12)
(1.13793 0.0022382 3.06301e-12)
(1.13232 0.00216664 -4.20808e-13)
(1.12714 0.00185473 -4.20598e-13)
(1.1225 0.00157397 1.07084e-12)
(1.11837 0.00152193 -1.16198e-11)
(1.1148 0.00162169 -6.72707e-12)
(1.11162 0.00136344 -4.28852e-12)
(1.10902 0.000460835 -3.0725e-12)
(1.10721 -0.000177802 -2.64774e-12)
(1.10634 -0.000133899 5.88579e-12)
(0.90871 0.00978841 8.60506e-14)
(0.941494 0.0128294 4.75115e-13)
(1.00448 -0.0073204 2.03745e-12)
(1.10102 -0.0487458 8.49111e-13)
(1.20907 -0.0866128 -1.23584e-12)
(1.31802 -0.0962493 -2.27398e-12)
(1.4239 -0.0715716 -2.22968e-12)
(1.52611 -0.0122893 -1.97189e-12)
(1.62156 0.080782 -1.65753e-12)
(1.70836 0.201451 -1.61478e-12)
(1.78384 0.339847 -2.11011e-12)
(1.84702 0.479643 -1.53597e-12)
(1.8908 0.601857 -8.50035e-13)
(1.90906 0.690521 -7.57954e-14)
(1.8987 0.739413 1.43724e-12)
(1.85851 0.748341 1.10516e-12)
(1.79052 0.720579 1.59616e-12)
(1.70324 0.66376 1.09786e-12)
(1.60927 0.587609 3.29634e-13)
(1.51504 0.509199 -2.1171e-12)
(1.43798 0.41581 -2.22675e-13)
(1.3881 0.332096 1.87492e-14)
(1.34961 0.249821 1.15643e-12)
(1.32048 0.184168 1.20414e-12)
(1.29808 0.137106 2.57985e-12)
(1.28 0.102464 2.34157e-12)
(1.26481 0.0765778 3.00972e-12)
(1.2515 0.057152 2.64205e-12)
(1.23966 0.0427215 1.92765e-12)
(1.22887 0.032051 1.43783e-12)
(1.21894 0.0239853 -8.28675e-13)
(1.2096 0.017768 -3.16086e-12)
(1.20071 0.0129792 -2.9655e-12)
(1.19216 0.00940817 -1.80943e-12)
(1.18397 0.00690033 2.76521e-13)
(1.17616 0.0051889 -1.3633e-12)
(1.16875 0.00406121 -2.31865e-12)
(1.16173 0.00321317 2.22904e-12)
(1.15507 0.00257507 1.58815e-12)
(1.14878 0.00231785 2.04339e-12)
(1.14289 0.00225054 -2.55588e-12)
(1.13743 0.00214957 -1.87348e-12)
(1.13242 0.00182408 -1.38085e-12)
(1.12792 0.00153359 -2.56034e-14)
(1.12388 0.00146361 -1.23855e-11)
(1.12042 0.00156464 -7.19396e-12)
(1.1174 0.00136562 -4.04591e-12)
(1.1149 0.000561638 -2.31753e-12)
(1.11304 -7.36734e-05 -1.52516e-12)
(1.11211 -0.00010766 -1.49026e-12)
(0.905718 0.00814142 6.93914e-14)
(0.926897 0.012523 4.19732e-13)
(0.972643 0.000276892 2.25628e-12)
(1.0416 -0.026459 8.00538e-13)
(1.11953 -0.049311 -2.62716e-12)
(1.20125 -0.0531953 -2.02974e-12)
(1.27533 -0.0313633 -1.75351e-12)
(1.34443 0.0160734 -1.55195e-12)
(1.40758 0.0878736 -1.39161e-12)
(1.46397 0.180028 -1.36712e-12)
(1.51181 0.28563 -1.54949e-12)
(1.5522 0.393494 -1.10792e-12)
(1.58135 0.491204 -5.96029e-13)
(1.59566 0.567616 -5.40159e-14)
(1.59446 0.615193 6.00339e-13)
(1.57531 0.633979 7.27339e-13)
(1.54086 0.624907 7.45252e-13)
(1.48972 0.587829 3.34578e-13)
(1.44024 0.534043 1.80378e-13)
(1.38808 0.461943 1.05685e-12)
(1.34361 0.385848 2.54641e-13)
(1.32291 0.304435 -4.82395e-13)
(1.30607 0.229817 -5.1163e-13)
(1.2902 0.171751 -4.90399e-13)
(1.27716 0.1287 7.4338e-13)
(1.2656 0.0964493 7.414e-13)
(1.2553 0.0720966 3.44533e-12)
(1.2456 0.0538866 2.15455e-12)
(1.23644 0.0403337 1.40566e-12)
(1.22761 0.0303124 1.21565e-12)
(1.21914 0.0227611 -3.22642e-12)
(1.21087 0.0169855 -3.47509e-12)
(1.20277 0.012563 -3.07331e-12)
(1.19483 0.00925414 -1.72248e-12)
(1.1871 0.00689064 -1.57648e-13)
(1.17965 0.00523509 -1.30318e-12)
(1.17251 0.00411312 -2.27215e-12)
(1.16571 0.00326797 -7.04403e-13)
(1.15922 0.0026373 9.25598e-14)
(1.15304 0.00234697 8.82083e-13)
(1.14728 0.00222068 -4.29023e-13)
(1.14196 0.00207027 -2.52609e-12)
(1.13712 0.0017325 -1.84655e-12)
(1.13274 0.0014539 -2.1842e-12)
(1.1288 0.00137363 -1.08789e-11)
(1.12545 0.0014768 -5.7053e-12)
(1.12255 0.00134176 -3.05803e-12)
(1.12016 0.000658584 -1.56262e-12)
(1.11829 4.96381e-05 -8.68008e-13)
(1.11733 -6.81611e-05 -6.36931e-13)
(0.903164 0.00697595 -5.73559e-14)
(0.915625 0.0113801 -5.65431e-13)
(0.94324 0.00455136 3.75071e-14)
(0.988163 -0.0108781 -4.62993e-15)
(1.04262 -0.0196298 -6.7334e-13)
(1.09922 -0.0161059 -1.04816e-12)
(1.15168 0.00683969 -1.21353e-12)