/*--------------------------------*- C++ -*----------------------------------*\
| =========                 |                                                 |
| \\      /  F ield         | OpenFOAM: The Open Source CFD Toolbox           |
|  \\    /   O peration     | Version:  2.4.x                                 |
|   \\  /    A nd           | Web:      www.OpenFOAM.org                      |
|    \\/     M anipulation  |                                                 |
\*---------------------------------------------------------------------------*/
FoamFile
{
    version     2.0;
    format      ascii;
    class       volScalarField;
    location    "0.02";
    object      varZ;
}
// * * * * * * * * * * * * * * * * * * * * * * * * * * * * * * * * * * * * * //

dimensions      [0 0 0 0 0 0 0];

internalField   nonuniform List<scalar> 
1250
(
0.00112175
0.00461513
0.00991457
0.0161092
0.0227552
0.0293081
0.035396
0.0407423
0.045301
0.0492539
0.0529318
0.0593044
0.0738395
0.102975
0.122462
0.11789
0.095944
0.0649425
0.03958
0.0220866
0.0113247
0.00530747
0.00219638
0.000752949
0.000214927
5.56384e-05
1.39354e-05
3.35466e-06
7.60183e-07
1.60632e-07
3.15567e-08
5.75893e-09
9.76625e-10
1.54062e-10
2.26329e-11
3.09938e-12
3.95994e-13
4.72562e-14
5.27336e-15
5.50803e-16
5.39003e-17
4.94607e-18
4.25996e-19
3.44721e-20
2.62343e-21
1.87897e-22
1.2674e-23
8.05967e-25
4.83821e-26
2.72919e-27
0.00126196
0.00518051
0.0110465
0.0177789
0.0248425
0.0316
0.0377142
0.0429475
0.0473374
0.0511294
0.0547375
0.0611377
0.0758112
0.104497
0.122697
0.117514
0.0950615
0.0643209
0.039212
0.0218901
0.0112285
0.0052637
0.00217766
0.000746039
0.000212885
5.5125e-05
1.38123e-05
3.32576e-06
7.53719e-07
1.59281e-07
3.12943e-08
5.7116e-09
9.68698e-10
1.52829e-10
2.24546e-11
3.07537e-12
3.92977e-13
4.69024e-14
5.2346e-15
5.4683e-16
5.35188e-17
4.91171e-18
4.23097e-19
3.4243e-20
2.60647e-21
1.86716e-22
1.25966e-23
8.0121e-25
4.81065e-26
2.71464e-27
0.00167806
0.00683062
0.0143003
0.022437
0.0304077
0.037438
0.0434049
0.048234
0.0521457
0.0555
0.058931
0.0653647
0.0803042
0.107773
0.123053
0.116626
0.0929919
0.0629047
0.0383672
0.0214356
0.0110046
0.00516145
0.00213401
0.000730064
0.000208208
5.39582e-05
1.3534e-05
3.26071e-06
7.39245e-07
1.5627e-07
3.0712e-08
5.6071e-09
9.51291e-10
1.50137e-10
2.20678e-11
3.02363e-12
3.86527e-13
4.61527e-14
5.1533e-15
5.38595e-16
5.27384e-17
4.84241e-18
4.17334e-19
3.37947e-20
2.57383e-21
1.84486e-22
1.24534e-23
7.92586e-25
4.76188e-26
2.68892e-27
0.0028553
0.0111633
0.0222998
0.0327955
0.0415826
0.0482639
0.0533896
0.0571607
0.0600357
0.0625636
0.065682
0.0720583
0.0871544
0.11223
0.123147
0.11489
0.0898882
0.0607594
0.0370776
0.0207384
0.0106594
0.00500291
0.00206599
0.000705071
0.000200854
5.21223e-05
1.30959e-05
3.15819e-06
7.16393e-07
1.51504e-07
2.97875e-08
5.44055e-09
9.23431e-10
1.45808e-10
2.14424e-11
2.93951e-12
3.7598e-13
4.49195e-14
5.01866e-15
5.24859e-16
5.14268e-17
4.7251e-18
4.07504e-19
3.30231e-20
2.51703e-21
1.80559e-22
1.21985e-23
7.77027e-25
4.67251e-26
2.64067e-27
0.00776978
0.0243993
0.0420951
0.0536258
0.0610234
0.0654412
0.0682584
0.0699217
0.0710659
0.0724034
0.0750422
0.0811013
0.0958469
0.116925
0.122519
0.111893
0.0859715
0.0579761
0.0353986
0.0198284
0.0102074
0.00479429
0.00197607
0.00067199
0.000191118
4.96906e-05
1.25145e-05
3.02195e-06
6.85985e-07
1.45153e-07
2.85531e-08
5.21767e-09
8.86061e-10
1.39985e-10
2.05984e-11
2.82559e-12
3.61646e-13
4.32366e-14
4.83411e-15
5.0594e-16
4.96114e-17
4.56195e-18
3.93766e-19
3.19386e-20
2.43667e-21
1.74966e-22
1.18327e-23
7.54531e-25
4.54215e-26
2.56965e-27
0.0493388
0.0686723
0.0807503
0.0858107
0.087773
0.0875567
0.0866866
0.0854379
0.0844378
0.0845771
0.0863612
0.0918109
0.105242
0.120577
0.120785
0.107522
0.0812715
0.0546542
0.033398
0.0187424
0.00966651
0.00454359
0.00186768
0.000632185
0.000179453
4.6778e-05
1.18164e-05
2.85812e-06
6.49392e-07
1.37505e-07
2.70658e-08
4.94897e-09
8.40977e-10
1.32955e-10
1.95782e-11
2.6877e-12
3.4427e-13
4.11934e-14
4.60963e-15
4.82883e-16
4.73953e-17
4.36242e-18
3.76932e-19
3.0607e-20
2.33778e-21
1.68065e-22
1.13803e-23
7.26634e-25
4.38003e-26
2.4811e-27
0.0705949
0.110458
0.118645
0.117588
0.114256
0.109477
0.104972
0.101075
0.0981355
0.0972274
0.0983673
0.102766
0.113449
0.121879
0.117809
0.101654
0.0759226
0.0509179
0.0311545
0.0175227
0.00905762
0.00426026
0.00174495
0.000587303
0.000166397
4.35213e-05
1.10334e-05
2.674e-06
6.08262e-07
1.28911e-07
2.53949e-08
4.64719e-09
7.90365e-10
1.25064e-10
1.84335e-11
2.53301e-12
3.24784e-13
3.8902e-14
4.35785e-15
4.57022e-16
4.49106e-17
4.13882e-18
3.58075e-19
2.91161e-20
2.22711e-21
1.60348e-22
1.08748e-23
6.95479e-25
4.19917e-26
2.38246e-27
0.0308827
0.114972
0.135023
0.135391
0.131251
0.124828
0.118636
0.113423
0.109522
0.108014
0.108676
0.111704
0.118432
0.120603
0.113051
0.0944843
0.0700457
0.0469018
0.0287521
0.0162143
0.00840327
0.00395467
0.00161246
0.000539187
0.000152525
4.00637e-05
1.01993e-05
2.4775e-06
5.64366e-07
1.19745e-07
2.36145e-08
4.32602e-09
7.36573e-10
1.1669e-10
1.72202e-11
2.36929e-12
3.04187e-13
3.64834e-14
4.0925e-15
4.29817e-16
4.2302e-17
3.9046e-18
3.38372e-19
2.75623e-20
2.1121e-21
1.52354e-22
1.0353e-23
6.63457e-25
4.01416e-26
2.2821e-27
0.0173475
0.0868334
0.1227
0.132702
0.132476
0.129059
0.123978
0.119442
0.115946
0.11449
0.114854
0.116467
0.118872
0.116662
0.106021
0.086719
0.063872
0.042751
0.0262744
0.0148637
0.00772671
0.00363754
0.00147502
0.000489736
0.000138412
3.6547e-05
9.34778e-06
2.27665e-06
5.19515e-07
1.10392e-07
2.18008e-08
3.99953e-09
6.82016e-10
1.08218e-10
1.59957e-11
2.20445e-12
2.83507e-13
3.40631e-14
3.82794e-15
4.02792e-16
3.9721e-17
3.6739e-18
3.1906e-19
2.60473e-20
2.00064e-21
1.44661e-22
9.85474e-24
6.33151e-25
3.84085e-26
2.18913e-27
0.0124721
0.049141
0.0875258
0.109505
0.118538
0.12073
0.119664
0.117591
0.115753
0.11507
0.115437
0.115883
0.115349
0.110036
0.0974084
0.0786139
0.0576186
0.0386026
0.0238035
0.013517
0.0070507
0.00331943
0.00133741
0.000440811
0.000124602
3.31055e-05
8.51149e-06
2.07921e-06
4.75472e-07
1.01227e-07
2.00284e-08
3.68147e-09
6.29061e-10
1.00025e-10
1.48163e-11
2.04639e-12
2.63774e-13
3.17661e-14
3.57835e-15
3.77461e-16
3.73187e-17
3.46088e-18
3.01384e-19
2.46743e-20
1.90076e-21
1.37857e-22
9.42073e-24
6.07218e-25
3.69561e-26
2.11308e-27
0.00327875
0.0199871
0.0478864
0.0749446
0.09234
0.101631
0.10608
0.108225
0.109158
0.110016
0.110752
0.110546
0.108017
0.100888
0.0877591
0.0701776
0.0513053
0.0344575
0.0213391
0.0121733
0.0063742
0.00299982
0.00119973
0.000392544
0.000111126
2.97431e-05
7.69127e-06
1.88546e-06
4.3232e-07
9.22689e-08
1.83016e-08
3.37285e-09
5.77901e-10
9.21479e-11
1.36885e-11
1.89614e-12
2.45141e-13
2.96132e-14
3.34636e-15
3.54134e-16
3.51293e-17
3.26902e-18
2.85681e-19
2.34736e-20
1.81502e-21
1.32144e-22
9.06602e-24
5.86709e-25
3.58536e-26
2.05825e-27
0.00151594
0.00844558
0.0230996
0.0434993
0.0625446
0.0764145
0.0856224
0.0918184
0.0959442
0.0988264
0.10039
0.100109
0.0970707
0.0894318
0.0769194
0.0611394
0.0446939
0.0301427
0.0187678
0.0107667
0.00566172
0.00266122
0.00105468
0.000342469
9.72632e-05
2.6266e-05
6.83715e-06
1.68308e-06
3.872e-07
8.29004e-08
1.64963e-08
3.05035e-09
5.2448e-10
8.39316e-11
1.25137e-11
1.73989e-12
2.25803e-13
2.73844e-14
3.10693e-15
3.30144e-16
3.28871e-17
3.07353e-18
2.69779e-19
2.22669e-20
1.72967e-21
1.26528e-22
8.72271e-24
5.67265e-25
3.48373e-26
2.00967e-27
0.000866616
0.0042697
0.0116514
0.0239679
0.0386772
0.0522302
0.0632806
0.0719337
0.0784532
0.0831034
0.0856953
0.0857807
0.0830549
0.0759766
0.0649182
0.0514776
0.0377243
0.0255892
0.0160345
0.00925955
0.00488957
0.00229085
0.000897133
0.00028896
8.25172e-05
2.25238e-05
5.90666e-06
1.46087e-06
3.37375e-07
7.25007e-08
1.44811e-08
2.68817e-09
4.64096e-10
7.45809e-11
1.1167e-11
1.55939e-12
2.03282e-13
2.47656e-14
2.82287e-15
3.01383e-16
3.01675e-17
2.83333e-18
2.49954e-19
2.07372e-20
1.61938e-21
1.19101e-22
8.25588e-24
5.39898e-25
3.33428e-26
1.93404e-27
0.00051669
0.00239703
0.00639074
0.0135948
0.0234148
0.0339286
0.0438447
0.0525811
0.0598213
0.0652772
0.0685569
0.0691889
0.0671452
0.0613484
0.0523384
0.0415481
0.030603
0.0209008
0.013194
0.00767358
0.00406415
0.00189095
0.000728844
0.000232843
6.70639e-05
1.85352e-05
4.89936e-06
1.2178e-06
2.82392e-07
6.09264e-08
1.22179e-08
2.2774e-09
3.94873e-10
6.37393e-11
9.5871e-12
1.34499e-12
1.76167e-13
2.1566e-14
2.47032e-15
2.65073e-16
2.66697e-17
2.51802e-18
2.23332e-19
1.86302e-20
1.46303e-21
1.0822e-22
7.54533e-24
4.96335e-25
3.08344e-26
1.79889e-27
0.000307608
0.00139829
0.00369966
0.00800556
0.0142393
0.0215056
0.0290506
0.0362922
0.0427258
0.0478611
0.0511831
0.0522016
0.0509041
0.0466966
0.0399477
0.0318541
0.0236267
0.0162601
0.0103501
0.00605998
0.00320978
0.00147356
0.000556272
0.000176554
5.15071e-05
1.44345e-05
3.84626e-06
9.60809e-07
2.23707e-07
4.84552e-08
9.75521e-09
1.82571e-09
3.17885e-10
5.15365e-11
7.78664e-12
1.09747e-12
1.44428e-13
1.77657e-14
2.04501e-15
2.20541e-16
2.23034e-17
2.11688e-18
1.88768e-19
1.58341e-20
1.25051e-21
9.3036e-23
6.52479e-24
4.31761e-25
2.69838e-26
1.58339e-27
0.000181641
0.000823605
0.00218855
0.00478386
0.00862497
0.013303
0.0184576
0.0237108
0.0286252
0.0327345
0.0355576
0.0366604
0.0359671
0.0332223
0.0285825
0.022946
0.0171561
0.0119108
0.00764528
0.0044963
0.00236726
0.00106228
0.000390937
0.000123968
3.68085e-05
1.04643e-05
2.80967e-06
7.05142e-07
1.64797e-07
3.58202e-08
7.23741e-09
1.35944e-09
2.37599e-10
3.86739e-11
5.86761e-12
8.30581e-13
1.0979e-13
1.3566e-14
1.56878e-15
1.69989e-16
1.72753e-17
1.6479e-18
1.47706e-19
1.24557e-20
9.89081e-22
7.3999e-23
5.21937e-24
3.47383e-25
2.18372e-26
1.28863e-27
0.000106465
0.000482029
0.00128445
0.00281413
0.0050928
0.00792998
0.0111625
0.0145808
0.0179007
0.02078
0.0228537
0.0237937
0.0234931
0.0218729
0.0189499
0.0153357
0.0115707
0.00810459
0.00523413
0.00307422
0.00159107
0.000689512
0.000247552
7.9245e-05
2.40345e-05
6.92452e-06
1.87156e-06
4.7159e-07
1.10558e-07
2.40979e-08
4.88237e-09
9.19804e-10
1.6126e-10
2.63345e-11
4.00936e-12
5.69613e-13
7.55831e-14
9.37613e-15
1.0887e-15
1.1847e-16
1.20927e-17
1.15877e-18
1.04353e-19
8.84282e-21
7.05739e-22
5.30756e-23
3.76362e-24
2.51859e-25
1.59195e-26
9.44457e-28
6.14122e-05
0.000274408
0.0007227
0.00157404
0.00285484
0.00447127
0.00634385
0.00836272
0.0103668
0.0121482
0.0134754
0.0141382
0.0140406
0.0131733
0.0114992
0.00938638
0.00714161
0.00503186
0.00324964
0.00188396
0.000941274
0.000390258
0.000138463
4.52899e-05
1.40303e-05
4.08582e-06
1.10994e-06
2.80507e-07
6.59003e-08
1.43889e-08
2.91996e-09
5.51059e-10
9.68104e-11
1.58449e-11
2.41815e-12
3.44467e-13
4.58452e-14
5.70531e-15
6.64652e-16
7.25782e-17
7.43547e-18
7.15247e-19
6.46734e-20
5.50363e-21
4.4117e-22
3.33286e-23
2.37447e-24
1.59677e-25
1.01435e-26
6.04739e-28
3.42778e-05
0.000148341
0.000376676
0.000804587
0.00146696
0.00232037
0.00331974
0.00440611
0.0054949
0.00647502
0.00722032
0.00761441
0.00759453
0.00716924
0.00629605
0.00517037
0.00394783
0.00277501
0.00176775
0.000989248
0.00046835
0.000187533
6.73725e-05
2.26411e-05
7.1302e-06
2.09137e-06
5.69944e-07
1.44255e-07
3.39139e-08
7.40718e-09
1.50343e-09
2.83802e-10
4.98797e-11
8.17018e-12
1.24828e-12
1.78073e-13
2.37409e-14
2.96062e-15
3.45733e-16
3.78496e-17
3.88814e-18
3.75145e-19
3.40318e-20
2.90593e-21
2.33766e-22
1.77257e-23
1.26781e-24
8.56116e-26
5.46199e-27
3.2702e-28
1.82978e-05
7.52455e-05
0.000178069
0.000363209
0.000662129
0.00106518
0.00154715
0.0020756
0.0026069
0.00308666
0.00345389
0.00365186
0.00364894
0.00345235
0.00303459
0.0024871
0.00188294
0.00129677
0.000793199
0.000418405
0.000188951
7.57718e-05
2.79952e-05
9.60638e-06
3.054e-06
8.99055e-07
2.45274e-07
6.20617e-08
1.45756e-08
3.17909e-09
6.44338e-10
1.21472e-10
2.13247e-11
3.48967e-12
5.32945e-13
7.60373e-14
1.01425e-14
1.26588e-15
1.47995e-16
1.62237e-17
1.66931e-18
1.61384e-19
1.4674e-20
1.25611e-21
1.01307e-22
7.70269e-24
5.52564e-25
3.74332e-26
2.39635e-27
1.43961e-28
9.23398e-06
3.57792e-05
7.74851e-05
0.000145157
0.000253574
0.000410262
0.000608466
0.00083218
0.00105938
0.00126415
0.00141904
0.00149948
0.00149439
0.0014063
0.00122211
0.000981438
0.000718604
0.000471168
0.000271686
0.000137312
6.19497e-05
2.54613e-05
9.60144e-06
3.32669e-06
1.06132e-06
3.12597e-07
8.51777e-08
2.15033e-08
5.0355e-09
1.09485e-09
2.21224e-10
4.15883e-11
7.28231e-12
1.18903e-12
1.81244e-13
2.58198e-14
3.4406e-15
4.29178e-16
5.01632e-17
5.49968e-18
5.66124e-19
5.47694e-20
4.98473e-21
4.272e-22
3.45025e-23
2.62772e-24
1.88862e-25
1.28211e-26
8.22698e-28
4.95402e-29
4.28998e-06
1.58478e-05
3.18404e-05
5.4444e-05
8.68553e-05
0.000132527
0.000192827
0.000264508
0.000339917
0.000408447
0.000458744
0.000481108
0.000474669
0.000438309
0.000369428
0.000284954
0.000199103
0.000124961
7.03091e-05
3.56163e-05
1.63308e-05
6.79888e-06
2.57831e-06
8.94369e-07
2.84974e-07
8.3702e-08
2.27218e-08
5.71124e-09
1.33104e-09
2.87952e-10
5.79007e-11
1.08365e-11
1.8896e-12
3.07309e-13
4.66723e-14
6.62719e-15
8.80667e-16
1.09597e-16
1.27837e-17
1.39919e-18
1.43866e-19
1.39091e-20
1.26533e-21
1.08403e-22
8.75397e-24
6.66831e-25
4.79495e-26
3.25716e-27
2.09178e-28
1.25999e-29
1.66517e-06
6.10413e-06
1.18683e-05
1.91246e-05
2.81299e-05
3.92348e-05
5.27521e-05
6.84532e-05
8.47674e-05
9.92128e-05
0.000108892
0.000111381
0.000107374
9.65739e-05
7.95497e-05
5.95283e-05
4.03661e-05
2.49081e-05
1.39414e-05
7.06413e-06
3.23425e-06
1.34031e-06
5.05072e-07
1.73978e-07
5.50144e-08
1.60245e-08
4.3116e-09
1.07384e-09
2.47959e-10
5.3157e-11
1.05946e-11
1.9657e-12
3.39902e-13
5.48437e-14
8.26743e-15
1.16577e-15
1.5393e-16
1.90448e-17
2.20976e-18
2.40693e-19
2.46344e-20
2.37151e-21
2.14895e-22
1.83434e-23
1.4764e-24
1.12135e-25
8.04247e-27
5.45101e-28
3.49382e-29
2.09646e-30
3.70884e-07
1.61316e-06
3.3431e-06
5.32603e-06
7.44499e-06
9.63185e-06
1.18582e-05
1.41121e-05
1.61595e-05
1.7674e-05
1.82916e-05
1.79339e-05
1.66422e-05
1.44488e-05
1.16396e-05
8.61864e-06
5.82137e-06
3.56445e-06
1.96854e-06
9.73156e-07
4.26067e-07
1.70179e-07
6.21326e-08
2.08061e-08
6.40944e-09
1.82143e-09
4.78784e-10
1.16665e-10
2.63905e-11
5.5481e-12
1.08499e-12
1.97576e-13
3.35521e-14
5.32165e-15
7.89344e-16
1.09618e-16
1.42676e-17
1.74169e-18
1.99576e-19
2.14839e-20
2.17449e-21
2.07139e-22
1.85828e-23
1.57134e-24
1.25353e-25
9.44014e-27
6.71555e-28
4.51663e-29
2.87436e-30
1.70311e-31
1.1181e-08
1.86578e-07
3.929e-07
6.06203e-07
8.05072e-07
9.79051e-07
1.12287e-06
1.23985e-06
1.32003e-06
1.35532e-06
1.33664e-06
1.26034e-06
1.12533e-06
9.41189e-07
7.32441e-07
5.26357e-07
3.46454e-07
2.07655e-07
1.12781e-07
5.51923e-08
2.4233e-08
9.65001e-09
3.5098e-09
1.17221e-09
3.60937e-10
1.02769e-10
2.71335e-11
6.65763e-12
1.53012e-12
3.22185e-13
5.99158e-14
9.91131e-15
1.53682e-15
2.34093e-16
3.45335e-17
4.67885e-18
5.634e-19
6.2358e-20
6.80424e-21
7.35246e-22
7.35668e-23
6.44313e-24
5.14197e-25
4.17088e-26
3.46383e-27
2.62203e-28
1.70512e-29
1.08232e-30
6.62769e-32
3.76775e-33
)
;

boundaryField
{
    AXIS
    {
        type            empty;
    }
    OUTLET
    {
        type            zeroGradient;
    }
    COFLOW
    {
        type            fixedValue;
        value           uniform 0;
    }
    PILOT
    {
        type            fixedValue;
        value           uniform 0;
    }
    FUEL
    {
        type            fixedValue;
        value           uniform 0;
    }
    WALL
    {
        type            zeroGradient;
    }
    front
    {
        type            wedge;
    }
    back
    {
        type            wedge;
    }
}


// ************************************************************************* //
