/*--------------------------------*- C++ -*----------------------------------*\
| =========                 |                                                 |
| \\      /  F ield         | OpenFOAM: The Open Source CFD Toolbox           |
|  \\    /   O peration     | Version:  2.4.x                                 |
|   \\  /    A nd           | Web:      www.OpenFOAM.org                      |
|    \\/     M anipulation  |                                                 |
\*---------------------------------------------------------------------------*/
FoamFile
{
    version     2.0;
    format      ascii;
    class       volScalarField;
    location    "0.02";
    object      Z;
}
// * * * * * * * * * * * * * * * * * * * * * * * * * * * * * * * * * * * * * //

dimensions      [0 0 0 0 0 0 0];

internalField   nonuniform List<scalar> 
1250
(
0.997374
0.989496
0.978893
0.96681
0.953419
0.939134
0.924251
0.909079
0.893771
0.877847
0.860843
0.838909
0.795358
0.699984
0.552838
0.402463
0.277045
0.182249
0.115125
0.0701489
0.0409364
0.0224919
0.0110447
0.00441738
0.00140239
0.000384958
9.87235e-05
2.38343e-05
5.34243e-06
1.10658e-06
2.11907e-07
3.75786e-08
6.18356e-09
9.46163e-10
1.34873e-10
1.79359e-11
2.22771e-12
2.59414e-13
2.81798e-14
2.87107e-15
2.74542e-16
2.46516e-17
2.07987e-18
1.65028e-19
1.23256e-20
8.67133e-22
5.75013e-23
3.59782e-24
2.12669e-25
1.18227e-26
0.996969
0.988089
0.97655
0.963542
0.949288
0.934365
0.919063
0.903703
0.88834
0.872407
0.855328
0.833125
0.788851
0.692322
0.546173
0.397931
0.274305
0.18064
0.114234
0.0696651
0.0406783
0.0223552
0.010972
0.00438341
0.00139043
0.00038164
9.78867e-05
2.36336e-05
5.29751e-06
1.09731e-06
2.10142e-07
3.72684e-08
6.13307e-09
9.38538e-10
1.33803e-10
1.77959e-11
2.21062e-12
2.57472e-13
2.79722e-14
2.85026e-15
2.72588e-16
2.44795e-17
2.06564e-18
1.63926e-19
1.22455e-20
8.61653e-22
5.71485e-23
3.57648e-24
2.11451e-25
1.17593e-26
0.99571
0.984001
0.969863
0.95439
0.938125
0.921965
0.906014
0.890469
0.875165
0.859423
0.842294
0.81952
0.773606
0.674802
0.531244
0.387768
0.268092
0.176962
0.112178
0.0685399
0.040074
0.0220335
0.0108014
0.00430441
0.00136284
0.000374048
9.59853e-05
2.31801e-05
5.19649e-06
1.07655e-06
2.06212e-07
3.6581e-08
6.02184e-09
9.21845e-10
1.31475e-10
1.74938e-11
2.17403e-12
2.53331e-13
2.75355e-14
2.80712e-15
2.68596e-16
2.4133e-17
2.03745e-18
1.61778e-19
1.20921e-20
8.51372e-22
5.65003e-23
3.53809e-24
2.09316e-25
1.16485e-26
0.991819
0.973483
0.953479
0.933643
0.914897
0.897886
0.881908
0.866873
0.852383
0.837485
0.820571
0.797018
0.748826
0.647606
0.508889
0.372606
0.258717
0.17138
0.109029
0.0668037
0.039135
0.0215301
0.0105329
0.00417971
0.00131922
0.000362038
9.29786e-05
2.24623e-05
5.03638e-06
1.04357e-06
1.99946e-07
3.54812e-08
5.84309e-09
8.94894e-10
1.27698e-10
1.70006e-11
2.11397e-12
2.46486e-13
2.68086e-14
2.73485e-15
2.61859e-16
2.3544e-17
1.98915e-18
1.58064e-19
1.18241e-20
8.3319e-22
5.53406e-23
3.46852e-24
2.05385e-25
1.14395e-26
0.973963
0.940179
0.91153
0.88919
0.871079
0.856034
0.842471
0.82983
0.817631
0.804636
0.788551
0.764174
0.713397
0.611372
0.480294
0.353304
0.246655
0.164157
0.104925
0.0645254
0.037895
0.0208607
0.0101739
0.00401301
0.00126112
0.000346069
8.89781e-05
2.15066e-05
4.82301e-06
9.99564e-07
1.91571e-07
3.40081e-08
5.60312e-09
8.58609e-10
1.22595e-10
1.63321e-11
2.03225e-12
2.37134e-13
2.58112e-14
2.63519e-15
2.52524e-16
2.27239e-17
1.92157e-18
1.52838e-19
1.14444e-20
8.07254e-22
5.36746e-23
3.36779e-24
1.99643e-25
1.11315e-26
0.798785
0.826165
0.818067
0.808542
0.799871
0.792385
0.785076
0.777368
0.769274
0.75933
0.744963
0.720115
0.667082
0.567628
0.446953
0.330849
0.232459
0.155606
0.100032
0.06179
0.0363966
0.0200459
0.00973481
0.00381006
0.00119102
0.000326875
8.41639e-05
2.03561e-05
4.56615e-06
9.46585e-07
1.81485e-07
3.22332e-08
5.3138e-09
8.14827e-10
1.16431e-10
1.55235e-11
1.93327e-12
2.25787e-13
2.45986e-14
2.51382e-15
2.41136e-16
2.17216e-17
1.83881e-18
1.46425e-19
1.09774e-20
7.75274e-22
5.16154e-23
3.24296e-24
1.92505e-25
1.07477e-26
0.503586
0.642804
0.678899
0.695512
0.704089
0.708634
0.710479
0.709912
0.707435
0.701444
0.68955
0.665216
0.61162
0.518811
0.410567
0.306276
0.216743
0.146097
0.0945412
0.0586951
0.0346899
0.0191109
0.00922926
0.0035781
0.00111192
0.000305321
7.87536e-05
1.90625e-05
4.27755e-06
8.87104e-07
1.7017e-07
3.0243e-08
4.98958e-09
7.65785e-10
1.09529e-10
1.46181e-11
1.82247e-12
2.13085e-13
2.32411e-14
2.37793e-15
2.2839e-16
2.06003e-17
1.74627e-18
1.39257e-19
1.04558e-20
7.39578e-22
4.93187e-23
3.10384e-24
1.84561e-25
1.03212e-26
0.320876
0.454605
0.520082
0.563414
0.59194
0.61037
0.623015
0.630702
0.634221
0.632394
0.624074
0.601908
0.550487
0.467733
0.37288
0.280593
0.200149
0.135993
0.0886522
0.0553449
0.0328299
0.0180844
0.00867283
0.00332556
0.0010271
0.00028233
7.29779e-05
1.76814e-05
3.96983e-06
8.23777e-07
1.5814e-07
2.81304e-08
4.64594e-09
7.13882e-10
1.02233e-10
1.36626e-11
1.70569e-12
1.99717e-13
2.18146e-14
2.2354e-15
2.15049e-16
1.94293e-17
1.64988e-18
1.31811e-19
9.91553e-21
7.02734e-22
4.69571e-23
2.96141e-24
1.76469e-25
9.88911e-27
0.240278
0.284348
0.359485
0.424673
0.471845
0.504385
0.527666
0.543736
0.554002
0.556872
0.552219
0.533561
0.487782
0.41696
0.335376
0.254748
0.183284
0.125649
0.0825558
0.0518469
0.0308745
0.0169968
0.00808272
0.00306156
0.000939963
0.000258832
6.70718e-05
1.62701e-05
3.65594e-06
7.59327e-07
1.45925e-07
2.59905e-08
4.29876e-09
6.61581e-10
9.49011e-11
1.27047e-11
1.58895e-12
1.86398e-13
2.03986e-14
2.09445e-15
2.01908e-16
1.82813e-17
1.55585e-18
1.24589e-19
9.39474e-21
6.67479e-22
4.47159e-23
2.82752e-24
1.68944e-25
9.49215e-27
0.135584
0.143276
0.212864
0.291925
0.353173
0.397953
0.430591
0.454626
0.471328
0.479937
0.478775
0.464756
0.427277
0.36836
0.299198
0.229506
0.166672
0.115373
0.076436
0.0483092
0.0288817
0.0158792
0.00747713
0.00279551
0.000853808
0.000235726
6.12631e-05
1.48841e-05
3.34852e-06
6.96408e-07
1.34041e-07
2.39164e-08
3.96359e-09
6.11294e-10
8.78811e-11
1.17917e-11
1.47825e-12
1.73842e-13
1.90719e-14
1.96325e-15
1.89763e-16
1.7229e-17
1.47046e-18
1.18098e-19
8.93232e-21
6.36612e-22
4.27856e-23
2.71439e-24
1.62727e-25
9.1727e-27
0.0182176
0.0520102
0.107251
0.179626
0.245177
0.297045
0.336752
0.367446
0.389886
0.403899
0.406864
0.397813
0.369505
0.321717
0.264156
0.204742
0.150269
0.105123
0.0702675
0.0447154
0.0268396
0.0147245
0.00685421
0.00252774
0.000768812
0.00021304
5.55598e-05
1.35261e-05
3.04833e-06
6.35205e-07
1.22531e-07
2.19167e-08
3.64202e-09
5.633e-10
8.12194e-11
1.09308e-11
1.3746e-12
1.62189e-13
1.78514e-14
1.84365e-15
1.78809e-16
1.62917e-17
1.39552e-18
1.12498e-19
8.54144e-21
6.11151e-22
4.12401e-23
2.62708e-24
1.58146e-25
8.95081e-27
0.00531172
0.0211257
0.0515453
0.101188
0.157435
0.208212
0.250416
0.284813
0.311322
0.329505
0.336732
0.332178
0.312516
0.275368
0.228819
0.179453
0.133337
0.094394
0.0637195
0.0408573
0.0246204
0.0134571
0.00617553
0.00224329
0.000680178
0.000189407
4.96006e-05
1.21067e-05
2.73485e-06
5.71365e-07
1.10539e-07
1.98358e-08
3.30777e-09
5.13483e-10
7.43157e-11
1.00403e-11
1.26763e-12
1.50223e-13
1.66029e-14
1.72164e-15
1.67676e-16
1.5344e-17
1.32027e-18
1.06924e-19
8.15669e-21
5.8645e-22
3.97685e-23
2.54597e-24
1.54035e-25
8.76119e-27
0.00241088
0.0105118
0.0272103
0.0579185
0.098554
0.140406
0.178862
0.212362
0.239767
0.259787
0.270117
0.269202
0.25672
0.229248
0.19294
0.153396
0.11558
0.0829072
0.0565685
0.0365728
0.0221103
0.0120048
0.00540651
0.00193019
0.000584157
0.000163671
4.30577e-05
1.05404e-05
2.3876e-06
5.0035e-07
9.71319e-08
1.7496e-08
2.92953e-09
4.56717e-10
6.63905e-11
9.00991e-12
1.14279e-12
1.35768e-13
1.51212e-14
1.57512e-15
1.54127e-16
1.41741e-17
1.2259e-18
9.98083e-20
7.65521e-21
5.53439e-22
3.77402e-23
2.42979e-24
1.47842e-25
8.45571e-27
0.00135367
0.00607919
0.0161424
0.0357236
0.0636689
0.0948077
0.125678
0.154312
0.179119
0.19825
0.209594
0.211314
0.203927
0.184777
0.157684
0.127231
0.0973417
0.0707895
0.0488552
0.0318469
0.0192766
0.0103434
0.0045424
0.00159033
0.000481308
0.000135826
3.58985e-05
8.81339e-06
2.00208e-06
4.20921e-07
8.2009e-08
1.48309e-08
2.49402e-09
3.90592e-10
5.70451e-11
7.779e-12
9.91548e-13
1.18294e-13
1.32584e-14
1.38803e-15
1.36516e-16
1.26217e-17
1.09766e-18
8.98728e-20
6.93304e-21
5.04178e-22
3.45852e-23
2.23998e-24
1.37112e-25
7.88797e-27
0.000845317
0.00385179
0.0104432
0.0236196
0.0428192
0.0649861
0.087997
0.110292
0.130365
0.146542
0.156993
0.160098
0.156072
0.143555
0.124299
0.101851
0.0791466
0.0583547
0.0407426
0.0267415
0.0161376
0.00848412
0.00360321
0.00123612
0.000375216
0.000106716
2.8324e-05
6.97155e-06
1.5878e-06
3.34866e-07
6.54733e-08
1.18867e-08
2.00738e-09
3.15794e-10
4.6338e-11
6.3496e-12
8.13377e-13
9.75132e-14
1.09876e-14
1.15629e-15
1.14325e-16
1.06275e-17
9.29414e-19
7.65336e-20
5.93862e-21
4.34436e-22
2.99804e-23
1.95354e-24
1.20308e-25
6.96204e-27
0.000560876
0.00258111
0.00711062
0.0162067
0.0294052
0.0447969
0.06114
0.0774063
0.0924331
0.104914
0.113448
0.11679
0.114834
0.107063
0.0940102
0.0781921
0.0616677
0.0460834
0.0325069
0.0214015
0.0127711
0.00649361
0.00264316
0.000891277
0.000272324
7.80359e-05
2.07792e-05
5.12421e-06
1.1695e-06
2.473e-07
4.85052e-08
8.8373e-09
1.49818e-09
2.36673e-10
3.4882e-11
4.80187e-12
6.1803e-13
7.44485e-14
8.43022e-15
8.91601e-16
8.86061e-17
8.28012e-18
7.28041e-19
6.02843e-20
4.70439e-21
3.46142e-22
2.40279e-23
1.57498e-24
9.75735e-26
5.67897e-27
0.000384418
0.00177149
0.00489828
0.0111219
0.0200769
0.0305233
0.041696
0.0529411
0.0634891
0.0724283
0.0787795
0.0816684
0.0808601
0.0762431
0.0677785
0.0571432
0.0456823
0.0345288
0.0244998
0.0160457
0.00933022
0.00450674
0.00175061
0.000585131
0.000180474
5.20226e-05
1.38776e-05
3.42566e-06
7.82883e-07
1.65849e-07
3.26094e-08
5.95857e-09
1.01346e-09
1.60673e-10
2.37715e-11
3.28563e-12
4.24665e-13
5.1377e-14
5.84394e-15
6.20901e-16
6.1995e-17
5.82146e-18
5.14421e-19
4.28159e-20
3.35896e-21
2.48494e-22
1.73454e-23
1.14337e-24
7.12362e-26
4.16891e-27
0.000263508
0.00119736
0.00326195
0.00733251
0.0132305
0.020132
0.027511
0.034938
0.0419284
0.0479074
0.0522512
0.0544051
0.0541415
0.0514931
0.0462416
0.0394211
0.0318275
0.0241875
0.0170994
0.0109627
0.00606079
0.00273276
0.00102212
0.000342594
0.00010665
3.08379e-05
8.22751e-06
2.03076e-06
4.64274e-07
9.84397e-08
1.93805e-08
3.54812e-09
6.04923e-10
9.61608e-11
1.42684e-11
1.97844e-12
2.56613e-13
3.11604e-14
3.55801e-15
3.79504e-16
3.80465e-17
3.58782e-18
3.18449e-19
2.66267e-20
2.09875e-21
1.56012e-22
1.09442e-23
7.25126e-25
4.54145e-26
2.67133e-27
0.000174549
0.000766714
0.00200906
0.00443133
0.00808459
0.0124631
0.0171631
0.0218747
0.0262887
0.0300587
0.0328183
0.0342421
0.0341736
0.0326701
0.0295099
0.0252874
0.0204424
0.0154232
0.0106546
0.00648874
0.00331151
0.00139677
0.000515262
0.000174392
5.45766e-05
1.57804e-05
4.20413e-06
1.03641e-06
2.36768e-07
5.01878e-08
9.88235e-09
1.8102e-09
3.08937e-10
4.91819e-11
7.3109e-12
1.01589e-12
1.32086e-13
1.60829e-14
1.84209e-15
1.9709e-16
1.98227e-17
1.87587e-18
1.67121e-19
1.40273e-20
1.11002e-21
8.28517e-23
5.83674e-24
3.88449e-25
2.44403e-26
1.44409e-27
0.000108619
0.000452457
0.00110439
0.00233133
0.00431868
0.00687424
0.00970246
0.0125568
0.0152163
0.0174685
0.0191041
0.019942
0.0199023
0.0190193
0.0171361
0.0145797
0.0115944
0.00846372
0.0055046
0.00306759
0.00144078
0.000589717
0.000218893
7.45821e-05
2.33435e-05
6.73393e-06
1.7893e-06
4.4009e-07
1.00349e-07
2.12393e-08
4.17769e-09
7.64741e-10
1.30466e-10
2.07689e-11
3.08896e-12
4.29684e-13
5.59448e-14
6.82324e-15
7.83089e-16
8.39554e-17
8.46319e-18
8.02977e-19
7.17432e-20
6.04e-21
4.79431e-22
3.5898e-23
2.53751e-24
1.69485e-25
1.07036e-26
6.34783e-28
6.18072e-05
0.000242002
0.000537884
0.00104172
0.00187693
0.00308638
0.00456186
0.00612752
0.00761001
0.00885758
0.00974086
0.0101595
0.0100946
0.00954758
0.00843386
0.006945
0.00524478
0.0035505
0.00210425
0.00108355
0.000492852
0.000202174
7.54498e-05
2.56964e-05
8.01737e-06
2.30461e-06
6.10229e-07
1.49604e-07
3.40115e-08
7.17969e-09
1.40908e-09
2.57476e-10
4.38632e-11
6.97498e-12
1.0366e-12
1.44137e-13
1.87676e-14
2.29001e-15
2.6303e-16
2.8226e-17
2.84881e-18
2.70682e-19
2.42245e-20
2.04314e-21
1.62498e-22
1.21941e-23
8.64027e-25
5.78564e-26
3.66396e-27
2.17888e-28
3.09032e-05
0.00011503
0.000235535
0.000413417
0.000679924
0.00106856
0.00159018
0.0022061
0.00283554
0.00338167
0.00375771
0.00390284
0.00383313
0.00352741
0.00297685
0.0023051
0.00161806
0.00101898
0.000573404
0.000289161
0.000131304
5.38562e-05
2.00281e-05
6.7872e-06
2.10694e-06
6.02776e-07
1.58883e-07
3.87879e-08
8.78271e-09
1.84675e-09
3.61154e-10
6.57911e-11
1.11772e-11
1.77283e-12
2.62868e-13
3.64791e-14
4.74247e-15
5.7797e-16
6.63269e-17
7.11231e-18
7.17667e-19
6.82026e-20
6.1058e-21
5.15175e-22
4.09958e-23
3.07885e-24
2.18378e-25
1.46397e-26
9.28326e-28
5.52472e-29
1.23292e-05
4.54701e-05
8.95174e-05
0.000146934
0.00022127
0.000317062
0.000438178
0.000581909
0.00073241
0.000864732
0.000950418
0.000968989
0.000931599
0.000833076
0.00068006
0.000503106
0.000339358
0.000207542
0.000114731
5.72271e-05
2.57151e-05
1.04285e-05
3.83581e-06
1.2871e-06
3.95951e-07
1.12312e-07
2.93558e-08
7.10856e-09
1.59694e-09
3.33267e-10
6.47061e-11
1.17048e-11
1.97508e-12
3.11288e-13
4.58812e-14
6.33167e-15
8.18973e-16
9.93477e-17
1.13546e-17
1.2129e-18
1.21945e-19
1.15502e-20
1.03087e-21
8.67298e-23
6.8837e-24
5.15799e-25
3.65122e-26
2.44362e-27
1.54728e-28
9.17753e-30
2.74539e-06
1.19828e-05
2.50532e-05
4.04329e-05
5.75152e-05
7.60444e-05
9.59573e-05
0.000117018
0.000136952
0.000152376
0.000159184
0.000156395
0.000144948
0.000125216
0.000100094
7.33886e-05
4.90457e-05
2.96709e-05
1.61446e-05
7.8364e-06
3.35182e-06
1.30492e-06
4.63804e-07
1.51092e-07
4.52666e-08
1.25336e-08
3.2038e-09
7.60058e-10
1.67515e-10
3.4332e-11
6.55003e-12
1.16469e-12
1.93313e-13
2.99944e-14
4.35587e-15
5.92739e-16
7.56609e-17
9.06581e-18
1.02431e-18
1.08233e-19
1.07713e-20
1.01042e-21
8.93536e-23
7.45229e-24
5.86599e-25
4.36046e-26
3.06313e-27
2.03524e-28
1.28012e-29
7.50099e-31
9.08996e-08
1.62113e-06
3.53168e-06
5.43737e-06
7.23586e-06
8.84387e-06
1.02578e-05
1.14831e-05
1.24068e-05
1.29045e-05
1.28208e-05
1.21061e-05
1.07773e-05
8.95585e-06
6.90166e-06
4.90345e-06
3.18786e-06
1.88495e-06
1.00806e-06
4.84813e-07
2.0861e-07
8.12243e-08
2.88423e-08
9.39693e-09
2.82169e-09
7.84191e-10
2.02547e-10
4.8958e-11
1.0548e-11
1.99263e-12
3.41113e-13
5.64726e-14
9.21658e-15
1.41936e-15
1.96081e-16
2.42086e-17
2.83516e-18
3.31421e-19
3.76943e-20
3.86541e-21
3.4459e-22
2.91778e-23
2.54748e-24
2.21444e-25
1.69655e-26
1.16592e-27
7.76843e-29
4.9759e-30
3.04848e-31
1.7253e-32
)
;

boundaryField
{
    AXIS
    {
        type            empty;
    }
    OUTLET
    {
        type            inletOutlet;
        inletValue      uniform 0;
        value           nonuniform List<scalar> 
25
(
1.18227e-26
1.17593e-26
1.16485e-26
1.14395e-26
1.11315e-26
1.07477e-26
1.03212e-26
9.88911e-27
9.49215e-27
9.1727e-27
8.95081e-27
8.76119e-27
8.45571e-27
7.88797e-27
6.96204e-27
5.67897e-27
4.16891e-27
2.67133e-27
1.44409e-27
6.34783e-28
2.17888e-28
5.52472e-29
9.17753e-30
7.50099e-31
1.7253e-32
)
;
    }
    COFLOW
    {
        type            fixedValue;
        value           uniform 0;
    }
    PILOT
    {
        type            fixedValue;
        value           uniform 0.271;
    }
    FUEL
    {
        type            fixedValue;
        value           uniform 1;
    }
    WALL
    {
        type            zeroGradient;
    }
    front
    {
        type            wedge;
    }
    back
    {
        type            wedge;
    }
}


// ************************************************************************* //
