/*--------------------------------*- C++ -*----------------------------------*\
| =========                 |                                                 |
| \\      /  F ield         | OpenFOAM: The Open Source CFD Toolbox           |
|  \\    /   O peration     | Version:  2.4.x                                 |
|   \\  /    A nd           | Web:      www.OpenFOAM.org                      |
|    \\/     M anipulation  |                                                 |
\*---------------------------------------------------------------------------*/
FoamFile
{
    version     2.0;
    format      ascii;
    class       volScalarField;
    location    "0.01";
    object      chi;
}
// * * * * * * * * * * * * * * * * * * * * * * * * * * * * * * * * * * * * * //

dimensions      [0 0 -1 0 0 0 0];

internalField   nonuniform List<scalar> 
1250
(
0.0347481
0.241337
0.831693
2.24906
5.48689
14.1439
37.3655
69.4819
86.6133
73.5778
49.567
30.7548
17.9831
10.2532
5.73594
3.11932
1.60614
0.730807
0.252508
0.0537579
0.00722675
0.00104932
0.000184179
3.18078e-05
5.00939e-06
7.12425e-07
9.1801e-08
1.07717e-08
1.15666e-09
1.14123e-10
1.03787e-11
8.72513e-13
6.80068e-14
4.9261e-15
3.32378e-16
2.09243e-17
1.23057e-18
6.77192e-20
3.49269e-21
1.69007e-22
7.68162e-24
3.28295e-25
1.32095e-26
5.00775e-28
1.7903e-29
6.04323e-31
1.92824e-32
5.82211e-34
1.66516e-35
4.48965e-37
0.0402813
0.289257
1.02608
2.79785
6.67011
16.4986
40.5116
71.8556
86.6188
72.5121
48.7887
30.299
17.7407
10.1312
5.67524
3.08926
1.59126
0.723514
0.249349
0.0528581
0.00709806
0.00103429
0.000181853
3.14199e-05
4.94975e-06
7.04234e-07
9.07974e-08
1.06618e-08
1.14572e-09
1.13134e-10
1.02977e-11
8.66525e-13
6.76042e-14
4.90168e-15
3.31066e-16
2.08645e-17
1.22838e-18
6.76787e-20
3.49476e-21
1.69322e-22
7.70586e-24
3.29766e-25
1.32858e-26
5.04359e-28
1.8057e-29
6.10388e-31
1.95027e-32
5.89669e-34
1.68884e-35
4.558e-37
0.0575187
0.454342
1.70852
4.62231
10.1663
22.607
48.0857
76.5024
86.4954
69.9714
47.0567
29.2761
17.1944
9.85443
5.53631
3.0197
1.55627
0.705893
0.241435
0.0505408
0.00676388
0.000994479
0.000175513
3.03289e-05
4.77577e-06
6.79299e-07
8.7583e-08
1.02865e-08
1.10575e-09
1.09231e-10
9.94734e-12
8.37495e-13
6.53742e-14
4.74261e-15
3.20526e-16
2.02149e-17
1.19104e-18
6.56726e-20
3.39394e-21
1.64575e-22
7.49627e-24
3.21098e-25
1.29477e-26
4.91968e-28
1.76318e-29
5.96612e-31
1.90815e-32
5.77528e-34
1.65587e-35
4.4731e-37
0.117076
1.08571
4.11669
9.89849
18.3919
34.1016
59.4205
81.8976
85.1471
66.3767
44.519
27.7537
16.3806
9.43846
5.32588
2.91344
1.50226
0.678415
0.229075
0.0469893
0.00626084
0.000933572
0.000165646
2.86167e-05
4.50085e-06
6.3959e-07
8.24176e-08
9.6774e-09
1.04018e-09
1.02759e-10
9.3592e-12
7.8812e-13
6.15278e-14
4.4642e-15
3.01815e-16
1.90426e-17
1.1225e-18
6.19245e-20
3.20193e-21
1.55348e-22
7.07989e-24
3.03445e-25
1.22429e-26
4.65497e-28
1.66963e-29
5.65378e-31
1.80965e-32
5.48166e-34
1.57307e-35
4.25301e-37
0.556275
5.0245
13.7878
23.9134
34.8328
51.3577
71.7178
86.0862
81.7995
61.7871
41.3258
25.8133
15.349
8.90608
5.05439
2.7753
1.43151
0.642264
0.212959
0.0424997
0.00564095
0.000857278
0.000153104
2.64347e-05
4.15054e-06
5.8897e-07
7.58243e-08
8.89842e-09
9.56151e-10
9.44427e-11
8.60144e-12
7.24348e-13
5.65542e-14
4.10389e-15
2.77534e-16
1.75173e-17
1.03308e-18
5.70209e-20
2.94999e-21
1.43209e-22
6.53062e-24
2.80077e-25
1.13075e-26
4.30268e-28
1.54462e-29
5.23492e-31
1.67711e-32
5.08509e-34
1.46079e-35
3.95335e-37
11.1897
30.0969
42.7646
50.2181
58.4751
70.0593
81.8264
86.9924
76.0752
56.229
37.6235
23.5753
14.1526
8.28485
4.73462
2.61123
1.34683
0.598874
0.193877
0.03739
0.00495565
0.00077109
0.000138709
2.39262e-05
3.74849e-06
5.30941e-07
6.82675e-08
8.00525e-09
8.5975e-10
8.4894e-11
7.73068e-12
6.51021e-13
5.08337e-14
3.6895e-15
2.4959e-16
1.57599e-17
9.29956e-19
5.13629e-20
2.65875e-21
1.29161e-22
5.89504e-24
2.52998e-25
1.02221e-26
3.89365e-28
1.39924e-29
4.74723e-31
1.5226e-32
4.62212e-34
1.32944e-35
3.60222e-37
24.6013
60.1712
71.2866
74.4542
77.952
82.4024
86.3172
83.1622
68.6559
50.019
33.5799
21.1826
12.8569
7.60455
4.3805
2.42773
1.25134
0.54983
0.172701
0.0319946
0.00425384
0.000680305
0.000123279
2.12345e-05
3.31806e-06
4.68931e-07
6.01994e-08
7.05179e-09
7.56829e-10
7.46973e-11
6.80055e-12
5.72671e-13
4.47209e-14
3.24667e-15
2.1972e-16
1.38802e-17
8.19511e-19
4.52946e-20
2.34632e-21
1.14076e-22
5.21153e-24
2.23867e-25
9.05398e-27
3.45294e-28
1.24237e-29
4.22026e-31
1.35544e-32
4.12053e-34
1.18689e-35
3.22058e-37
12.422
58.4958
78.7482
83.7019
85.1863
85.5969
83.9284
75.1871
60.2035
43.5703
29.4308
18.744
11.5224
6.89419
4.00614
2.23158
1.14829
0.496822
0.150369
0.0266411
0.00357757
0.000589739
0.000107609
1.85001e-05
2.88215e-06
4.06298e-07
5.2063e-08
6.09104e-09
6.53173e-10
6.44319e-11
5.86442e-12
4.9383e-13
3.8571e-14
2.80121e-15
1.89667e-16
1.19882e-17
7.08287e-19
3.91794e-20
2.03132e-21
9.88589e-23
4.52143e-24
1.94441e-25
7.8737e-27
3.00719e-28
1.08352e-29
3.68603e-31
1.18579e-32
3.61093e-34
1.0419e-35
2.83202e-37
6.87181
44.1233
69.2824
78.2564
80.8355
80.0224
75.1579
65.0574
51.371
37.2081
25.3712
16.3605
10.2024
6.18041
3.625
2.02933
1.04091
0.441627
0.127862
0.0216195
0.00295847
0.000503435
9.24235e-05
1.58526e-05
2.46179e-06
3.46119e-07
4.42651e-08
5.1719e-09
5.54143e-10
5.46374e-11
4.97218e-12
4.18752e-13
3.27194e-14
2.37763e-15
1.611e-16
1.01903e-17
6.02623e-19
3.337e-20
1.73211e-21
8.44059e-23
3.86596e-24
1.66496e-25
6.75312e-27
2.58384e-28
9.32613e-30
3.17842e-31
1.02455e-32
3.12646e-34
9.04037e-36
2.46252e-37
4.10887
29.7351
52.7924
64.3511
68.651
68.3437
63.4594
54.3087
42.7582
31.2346
21.5607
14.1151
8.9396
5.48586
3.24895
1.82704
0.932361
0.386103
0.106162
0.0171573
0.00241675
0.000424538
7.83395e-05
1.34038e-05
2.07509e-06
2.91031e-07
3.71551e-08
4.33649e-09
4.64379e-10
4.57823e-11
4.16738e-12
3.51174e-13
2.74624e-14
1.99774e-15
1.35518e-16
8.58303e-18
5.08303e-19
2.81914e-20
1.46578e-21
7.15593e-23
3.28414e-24
1.41731e-25
5.76127e-27
2.20946e-28
7.99407e-30
2.73135e-31
8.82777e-33
2.70116e-34
7.83234e-36
2.13939e-37
0.537781
17.2695
36.6037
48.3077
53.8945
54.5815
51.012
43.7035
34.6843
25.6979
18.0074
12.0026
7.72945
4.80881
2.87672
1.62396
0.822395
0.330405
0.0855507
0.0132796
0.0019473
0.000352924
6.5408e-05
1.11654e-05
1.72404e-06
2.41337e-07
3.07763e-08
3.59051e-09
3.84566e-10
3.79404e-11
3.45734e-12
2.91759e-13
2.28561e-14
1.66595e-15
1.13246e-16
7.18837e-18
4.26719e-19
2.37265e-20
1.23694e-21
6.05589e-23
2.78764e-24
1.20677e-25
4.92109e-27
1.89353e-28
6.87507e-30
2.35765e-31
7.6485e-33
2.3492e-34
6.83808e-36
1.87494e-37
0.269461
9.67742
23.5692
33.4493
39.0711
40.5738
38.6323
33.5762
27.0734
20.4476
14.6111
9.94853
6.52601
4.12209
2.4922
1.41087
0.705931
0.27222
0.0655019
0.00984571
0.00152421
0.000284953
5.29987e-05
9.02621e-06
1.39052e-06
1.9437e-07
2.4773e-08
2.89082e-09
3.09919e-10
3.06238e-11
2.79623e-12
2.36536e-13
1.85814e-14
1.35839e-15
9.26214e-17
5.8985e-18
3.51354e-19
1.96064e-20
1.02602e-21
5.04309e-23
2.33099e-24
1.0134e-25
4.15036e-27
1.60407e-28
5.85195e-30
2.01682e-31
6.57536e-33
2.02971e-34
5.93801e-36
1.63625e-37
0.170381
5.59325
14.3943
21.5498
26.2527
28.1093
27.4045
24.3991
20.1214
15.5698
11.4016
7.95291
5.32503
3.42042
2.09021
1.18377
0.580325
0.210858
0.046297
0.00685557
0.00113805
0.000219138
4.08416e-05
6.93525e-06
1.06566e-06
1.48736e-07
1.89471e-08
2.21188e-09
2.37429e-10
2.3507e-11
2.15173e-12
1.8255e-13
1.43879e-14
1.05552e-15
7.22309e-17
4.61797e-18
2.76208e-19
1.54791e-20
8.13621e-22
4.01755e-23
1.86599e-24
8.15325e-26
3.35622e-27
1.30389e-28
4.78332e-30
1.65813e-31
5.43733e-33
1.68822e-34
4.96804e-36
1.37688e-37
0.107146
3.25096
8.46157
13.0869
16.4886
18.2107
18.2183
16.7188
14.1781
11.2894
8.50353
6.08763
4.16865
2.72511
1.68083
0.94686
0.447962
0.148932
0.0293316
0.004428
0.000797803
0.00015748
2.93377e-05
4.96123e-06
7.59832e-07
1.05839e-07
1.34708e-08
1.57283e-09
1.6902e-10
1.67659e-11
1.53855e-12
1.3092e-13
1.03535e-14
7.62303e-16
5.2363e-17
3.36158e-18
2.01933e-19
1.13674e-20
6.00289e-22
2.9788e-23
1.39071e-24
6.10931e-26
2.52869e-27
9.87917e-29
3.64569e-30
1.27161e-31
4.19589e-33
1.31098e-34
3.88235e-36
1.08267e-37
0.0640307
1.84973
4.80763
7.56706
9.76994
11.0923
11.3918
10.7965
9.44673
7.75891
6.02075
4.42977
3.10503
2.06328
1.27884
0.707973
0.314476
0.0915736
0.0161957
0.00263108
0.000514949
0.000103305
1.91694e-05
3.22298e-06
4.91461e-07
6.82652e-08
8.67556e-09
1.01252e-09
1.08872e-10
1.08147e-11
9.94585e-13
8.48614e-14
6.73182e-15
4.97314e-16
3.42812e-17
2.20953e-18
1.3329e-19
7.53643e-21
3.99837e-22
1.99383e-23
9.3565e-25
4.13246e-26
1.72001e-27
6.75843e-29
2.50905e-30
8.80623e-32
2.92421e-33
9.19524e-35
2.74074e-36
7.69187e-38
0.0352349
1.00242
2.6276
4.18299
5.49924
6.38953
6.73645
6.56739
5.93754
5.0299
4.02141
3.04076
2.17729
1.46362
0.901774
0.478688
0.189596
0.0460066
0.00772481
0.00142668
0.000298198
6.01117e-05
1.10608e-05
1.84536e-06
2.79795e-07
3.87148e-08
4.9084e-09
5.72183e-10
6.15091e-11
6.11412e-12
5.63084e-13
4.81378e-14
3.82764e-15
2.83535e-16
1.96056e-17
1.26811e-18
7.67908e-20
4.3595e-21
2.32286e-22
1.16356e-23
5.48647e-25
2.43565e-26
1.01923e-27
4.02727e-29
1.50378e-30
5.30961e-32
1.77395e-33
5.61318e-35
1.68369e-36
4.75491e-38
0.0174444
0.502661
1.36613
2.20524
2.94344
3.48762
3.76552
3.76186
3.50833
3.06083
2.51487
1.94595
1.41374
0.949641
0.566955
0.273854
0.0888511
0.0179323
0.00325899
0.000691756
0.000149732
2.99954e-05
5.45173e-06
8.99923e-07
1.35446e-07
1.86458e-08
2.35571e-09
2.74003e-10
2.94206e-11
2.92353e-12
2.69347e-13
2.30463e-14
1.83517e-15
1.36221e-16
9.44226e-18
6.12431e-19
3.72035e-20
2.11939e-21
1.13356e-22
5.70086e-24
2.69943e-25
1.20395e-26
5.06303e-28
2.01088e-29
7.54859e-31
2.68012e-32
9.00574e-34
2.86633e-35
8.64882e-37
2.45696e-38
0.00733063
0.218335
0.658232
1.09488
1.4892
1.79738
1.98149
2.02237
1.93408
1.72956
1.44885
1.13467
0.822223
0.534918
0.291659
0.114987
0.0286809
0.00564937
0.00124039
0.000287476
6.25502e-05
1.23581e-05
2.21328e-06
3.6082e-07
5.37658e-08
7.34875e-09
9.23829e-10
1.07076e-10
1.14696e-11
1.13803e-12
1.04778e-13
8.96605e-15
7.14442e-16
5.30926e-17
3.68564e-18
2.39485e-19
1.45853e-20
8.33225e-22
4.47117e-23
2.25673e-24
1.07247e-25
4.80276e-27
2.02856e-28
8.09297e-30
3.05235e-31
1.08912e-32
3.67859e-34
1.17704e-35
3.57087e-37
1.0199e-38
0.00242761
0.0685742
0.268461
0.486291
0.687887
0.851653
0.958215
0.995745
0.966985
0.877495
0.735883
0.567749
0.392133
0.228062
0.0992538
0.0290215
0.00665645
0.00161302
0.000407946
9.68887e-05
2.08413e-05
4.04998e-06
7.14333e-07
1.14937e-07
1.69393e-08
2.29408e-09
2.86262e-10
3.29943e-11
3.51983e-12
3.48236e-13
3.19993e-14
2.73542e-15
2.17913e-16
1.61985e-17
1.12544e-18
7.32339e-20
4.46857e-21
2.55813e-22
1.37615e-23
6.96584e-25
3.32069e-26
1.4923e-27
6.32694e-29
2.53387e-30
9.59635e-32
3.439e-33
1.16685e-34
3.75121e-36
1.14351e-37
3.28181e-39
0.000636098
0.0114419
0.0665006
0.158797
0.253179
0.332997
0.386894
0.407656
0.396957
0.354832
0.28447
0.200812
0.117812
0.0528055
0.0174497
0.00493408
0.00142203
0.000405704
0.000106564
2.51372e-05
5.32445e-06
1.01873e-06
1.77153e-07
2.81457e-08
4.10204e-09
5.5018e-10
6.80888e-11
7.7928e-12
8.26484e-13
8.13874e-14
7.45358e-15
6.3569e-16
5.05671e-17
3.75678e-18
2.61119e-19
1.70064e-20
1.03853e-21
5.9539e-23
3.2099e-24
1.62863e-25
7.78435e-27
3.50818e-28
1.49204e-29
5.99634e-31
2.27924e-32
8.19934e-34
2.79312e-35
9.01634e-37
2.76036e-38
7.95641e-40
0.00017138
0.00150472
0.0076536
0.0229041
0.0479527
0.075276
0.0946352
0.100962
0.0960569
0.0802839
0.0565912
0.0330725
0.0157219
0.00626333
0.0023163
0.000823487
0.000270693
7.96155e-05
2.07906e-05
4.83909e-06
1.01091e-06
1.90905e-07
3.27972e-08
5.15291e-09
7.43435e-10
9.88249e-11
1.21349e-11
1.37899e-12
1.45333e-13
1.42338e-14
1.29793e-15
1.10339e-16
8.75594e-18
6.49669e-19
4.51319e-20
2.93867e-21
1.79547e-22
1.03044e-23
5.56161e-25
2.82671e-26
1.35392e-27
6.1165e-29
2.60864e-30
1.05127e-31
4.00741e-33
1.44632e-34
4.94356e-36
1.60142e-37
4.92122e-39
1.42388e-40
4.79857e-05
0.000257996
0.000807308
0.0019847
0.00402197
0.00671662
0.00917618
0.00999271
0.00916947
0.0072246
0.00490849
0.00293536
0.00157655
0.000758539
0.000319299
0.000119193
3.92845e-05
1.14081e-05
2.93457e-06
6.73664e-07
1.39061e-07
2.59687e-08
4.41522e-09
6.87126e-10
9.8287e-11
1.29628e-11
1.58038e-12
1.78492e-13
1.87116e-14
1.8241e-15
1.65631e-16
1.40334e-17
1.11117e-18
8.23035e-20
5.71016e-21
3.71498e-22
2.26952e-23
1.30336e-24
7.04138e-26
3.58262e-27
1.71833e-28
7.77635e-30
3.3235e-31
1.34263e-32
5.13073e-34
1.85631e-35
6.36303e-37
2.06767e-38
6.37408e-40
1.84989e-41
1.13227e-05
5.27731e-05
0.000127649
0.000247019
0.000415429
0.000609253
0.000767404
0.000810045
0.000744541
0.000606313
0.00044035
0.00028555
0.000164979
8.39744e-05
3.69727e-05
1.38613e-05
4.35077e-06
1.21622e-06
3.0415e-07
6.83026e-08
1.38457e-08
2.5479e-09
4.27842e-10
6.58581e-11
9.32808e-12
1.21941e-12
1.47499e-13
1.65427e-14
1.72331e-15
1.67049e-16
1.50952e-17
1.27344e-18
1.00415e-19
7.41166e-21
5.12826e-22
3.32961e-23
2.03035e-24
1.16419e-25
6.28492e-27
3.19662e-28
1.53281e-29
6.9373e-31
2.96636e-32
1.19934e-33
4.58799e-35
1.6619e-36
5.70475e-38
1.85702e-39
5.73574e-41
1.6672e-42
1.96769e-06
1.14314e-05
2.59622e-05
4.25051e-05
5.84257e-05
7.1051e-05
7.73077e-05
7.55309e-05
6.65249e-05
5.27233e-05
3.74932e-05
2.38464e-05
1.35149e-05
6.7907e-06
2.98987e-06
1.14308e-06
3.8099e-07
1.0878e-07
2.63264e-08
5.45414e-09
1.02237e-09
1.77967e-10
2.86828e-11
4.27803e-12
5.90766e-13
7.56134e-14
8.98343e-15
9.91754e-16
1.01872e-16
9.75043e-18
8.706e-19
7.26248e-20
5.66956e-21
4.14657e-22
2.84446e-23
1.8325e-24
1.11007e-25
6.32919e-27
3.39808e-28
1.71947e-29
8.20791e-31
3.69984e-32
1.57614e-33
6.35116e-35
2.42237e-36
8.75113e-38
2.99717e-39
9.73631e-41
3.00204e-42
8.69622e-44
4.60915e-07
5.0133e-06
7.51662e-06
8.46511e-06
8.43057e-06
7.9795e-06
7.27694e-06
6.37631e-06
5.26395e-06
3.9959e-06
2.738e-06
1.67899e-06
9.18974e-07
4.47342e-07
1.91852e-07
7.18734e-08
2.35082e-08
6.68035e-09
1.64498e-09
3.53159e-10
6.76436e-11
1.17961e-11
1.89185e-12
2.80632e-13
3.86244e-14
4.9431e-15
5.89317e-16
6.56836e-17
6.71822e-18
6.17914e-19
5.12404e-20
3.96818e-21
2.96628e-22
2.11985e-23
1.40111e-24
8.48523e-26
4.84045e-27
2.66104e-28
1.38629e-29
6.66376e-31
2.97868e-32
1.28027e-33
5.32334e-35
2.07607e-36
7.43411e-38
2.56789e-39
8.53638e-41
2.71803e-42
8.26877e-44
2.35548e-45
)
;

boundaryField
{
    AXIS
    {
        type            empty;
    }
    OUTLET
    {
        type            zeroGradient;
    }
    COFLOW
    {
        type            calculated;
        value           uniform 0;
    }
    PILOT
    {
        type            calculated;
        value           uniform 0;
    }
    FUEL
    {
        type            calculated;
        value           uniform 0;
    }
    WALL
    {
        type            zeroGradient;
    }
    front
    {
        type            wedge;
    }
    back
    {
        type            wedge;
    }
}


// ************************************************************************* //
