/*--------------------------------*- C++ -*----------------------------------*\
| =========                 |                                                 |
| \\      /  F ield         | OpenFOAM: The Open Source CFD Toolbox           |
|  \\    /   O peration     | Version:  2.4.x                                 |
|   \\  /    A nd           | Web:      www.OpenFOAM.org                      |
|    \\/     M anipulation  |                                                 |
\*---------------------------------------------------------------------------*/
FoamFile
{
    version     2.0;
    format      ascii;
    class       volScalarField;
    location    "0.01";
    object      epsilon;
}
// * * * * * * * * * * * * * * * * * * * * * * * * * * * * * * * * * * * * * //

dimensions      [0 2 -3 0 0 0 0];

internalField   nonuniform List<scalar> 
1250
(
75.3678
133.554
204.35
326.194
539.359
1002.83
2346.46
6510.39
14593
19752.2
20741.4
19533.1
16533.5
13062.9
9694.55
6659.08
4091.11
2083.98
787.372
225.779
72.4466
40.9162
34.9158
33.7011
33.3855
33.2646
33.1996
33.1557
33.136
33.134
33.1368
33.1381
33.1417
33.139
33.1383
33.1406
33.141
33.1406
33.1442
33.143
33.1476
33.1486
33.1527
33.1448
33.1325
33.1263
33.1262
33.1206
33.1057
33.099
79.3034
144.557
231.281
380.866
629.766
1147.7
2588.47
6967.25
14849.9
19760.3
20647.4
19413.2
16416.9
12972.5
9627.93
6612.29
4059.95
2065
778.446
223.04
71.8362
40.7926
34.8843
33.6857
33.372
33.2512
33.1866
33.1475
33.1277
33.1229
33.1234
33.1239
33.1257
33.1216
33.1192
33.1221
33.1201
33.1195
33.1213
33.122
33.1263
33.1286
33.1313
33.1263
33.118
33.1144
33.1136
33.1089
33.1007
33.0975
87.0787
176.31
315.171
551.667
883.562
1519.97
3211.23
8012.84
15414.1
19773.8
20442.6
19146
16158.2
12770.6
9477.63
6504.87
3986.57
2018.73
755.74
215.83
70.2362
40.4789
34.8149
33.6592
33.3517
33.2312
33.1669
33.128
33.1067
33.0998
33.0996
33.1001
33.1002
33.0936
33.0893
33.0916
33.0886
33.0869
33.0876
33.0881
33.0909
33.0942
33.0939
33.0855
33.0781
33.0743
33.0728
33.069
33.0639
33.0629
102.919
272.88
556.154
990.798
1448.23
2263.44
4343.11
9575.35
16164
19763.4
20131.2
18736.8
15771.1
12465.9
9249.4
6340.08
3872.59
1946.11
720.187
204.737
67.8179
40.0144
34.7203
33.6307
33.3338
33.2151
33.152
33.1139
33.0916
33.0849
33.0853
33.0867
33.0845
33.0735
33.0688
33.0707
33.0677
33.0654
33.0658
33.0661
33.0679
33.0707
33.0676
33.0572
33.0512
33.0467
33.0447
33.0419
33.0393
33.0397
190.318
691.819
1365.42
2045.51
2548.92
3541.79
6040.89
11401.5
16881.9
19648.4
19696.4
18172.5
15264.7
12065.3
8948.26
6121.71
3720.95
1849.7
673.769
190.596
64.7856
39.4366
34.605
33.5987
33.3161
33.2003
33.1392
33.1024
33.08
33.0729
33.0734
33.075
33.0718
33.0589
33.0536
33.0549
33.0529
33.0511
33.0512
33.0514
33.0529
33.0543
33.0486
33.0379
33.0325
33.027
33.0247
33.0225
33.0219
33.0232
997.381
2802.15
3657.01
3861.15
4226.78
5346.63
8173.63
13086.8
17379.5
19352.1
19124.6
17456.5
14647.3
11578.9
8581.51
5855.21
3535.72
1732.76
618.754
174.305
61.3486
38.7844
34.4751
33.5633
33.2978
33.1857
33.1269
33.0917
33.0699
33.0623
33.0629
33.0646
33.0607
33.0471
33.0415
33.0418
33.042
33.0434
33.0409
33.0399
33.0443
33.0431
33.0334
33.0244
33.0191
33.0123
33.0095
33.008
33.0085
33.0101
1250.2
4152.27
5150.8
5404.83
5942.45
7314.04
10291.4
14352
17551.7
18832.2
18383.9
16618.5
13935.9
11018.9
8158.39
5547.06
3321.72
1599.03
557.639
156.805
57.7187
38.0967
34.3366
33.5247
33.2778
33.1702
33.1138
33.0805
33.0593
33.0515
33.0521
33.054
33.0496
33.0359
33.0314
33.0318
33.0323
33.0352
33.0319
33.0298
33.0351
33.0319
33.0201
33.0141
33.0088
33
32.9968
32.9958
32.9967
32.9984
703.206
3237.01
5282.01
6299.09
7340.12
9066.84
11854.5
15035
17358.7
18084.3
17480.4
15680.6
13147.9
10398.2
7688.5
5204.67
3084.31
1452.69
493.117
139.031
54.096
37.4095
34.1946
33.4824
33.255
33.1523
33.0984
33.0668
33.0466
33.0388
33.0394
33.0414
33.0366
33.0233
33.0206
33.021
33.0215
33.0254
33.0215
33.0185
33.0241
33.0195
33.007
33.0045
32.9991
32.9875
32.9839
32.9831
32.984
32.9859
508.762
2402.01
4872.66
6592.7
8185.18
10152.4
12639.5
15122.3
16795
17132.7
16434.6
14665.3
12301.6
9730.25
7183.17
4836.71
2829.31
1298.45
427.984
121.841
50.651
36.7524
34.0532
33.4358
33.2276
33.1301
33.0785
33.0484
33.0292
33.0219
33.0226
33.0245
33.0198
33.0071
33.0056
33.0061
33.0066
33.0111
33.007
33.0032
33.009
33.0034
32.9922
32.9931
32.9867
32.9718
32.9677
32.967
32.968
32.97
337.364
1841.1
4287.61
6433.78
8409.83
10497.5
12712.1
14711.3
15903.9
16014.1
15279.9
13596.2
11414.8
9029.64
6652.43
4450.74
2563.17
1141.55
365.011
105.959
47.5148
36.1475
33.9142
33.3831
33.193
33.1007
33.0512
33.0225
33.0043
32.9981
32.9988
33.0006
32.9964
32.9844
32.9832
32.9836
32.9842
32.9893
32.9851
32.9808
32.9865
32.9806
32.9698
32.9716
32.9648
32.949
32.9448
32.9442
32.9453
32.9473
116.569
1382.44
3712.25
5995.83
8156.93
10256.9
12250.9
13854.4
14749.7
14745.8
14018.9
12464.2
10476.7
8288
6090.43
4043.22
2284.63
982.761
304.909
91.4844
44.6882
35.5916
33.7745
33.3209
33.1478
33.0604
33.0129
32.9855
32.9683
32.9637
32.9644
32.966
32.963
32.9516
32.9495
32.9499
32.9505
32.956
32.9518
32.9472
32.9529
32.947
32.9353
32.9364
32.9298
32.9149
32.9109
32.9104
32.9114
32.9135
101.453
1179.75
3251.47
5417.93
7537.63
9537.7
11305.3
12642.2
13342.6
13294.2
12616.4
11227.5
9449.15
7472.33
5470.27
3594.1
1981.85
816.229
246.044
77.9473
42.0646
35.0639
33.6298
33.248
33.0914
33.0089
32.9633
32.937
32.9212
32.9184
32.9191
32.9205
32.9192
32.9083
32.9037
32.9041
32.9048
32.9105
32.9064
32.9015
32.9071
32.9015
32.8868
32.8845
32.8793
32.8683
32.8648
32.8643
32.8654
32.8674
101.037
1087.31
2881.79
4796.49
6710.16
8503.77
10041.1
11164.6
11733.1
11679.1
11081.8
9877.4
8319.78
6569.2
4778.3
3091.81
1646.7
641.048
188.984
65.4094
39.6444
34.5666
33.4841
33.1692
33.0288
32.9517
32.9083
32.8831
32.8688
32.8679
32.8684
32.8693
32.8694
32.8588
32.8513
32.8517
32.8526
32.8582
32.8541
32.8491
32.8546
32.8494
32.8333
32.8265
32.8215
32.8145
32.8117
32.8114
32.8125
32.8142
99.7332
1008.47
2550.9
4174.99
5801.46
7325.71
8617.98
9549.6
10016.8
9971.45
9468.75
8448.92
7112.98
5593.51
4024.25
2540.46
1285.1
465.759
137.191
54.4881
37.5297
34.1216
33.3449
33.09
32.9659
32.895
32.8543
32.8304
32.8175
32.8173
32.8176
32.8177
32.8187
32.8091
32.799
32.7994
32.8004
32.8056
32.8015
32.7961
32.8015
32.7965
32.7796
32.7697
32.7648
32.7605
32.7582
32.758
32.7591
32.7606
94.8806
911.687
2223.06
3564.29
4890.11
6124.5
7166.11
7914.16
8287.08
8248.54
7831.22
6981.25
5856.82
4564.52
3221.91
1951.88
913.938
305.212
94.7464
45.8236
35.8331
33.7481
33.2175
33.0144
32.9066
32.843
32.8057
32.7834
32.7711
32.7688
32.7691
32.7692
32.7707
32.7633
32.751
32.7514
32.7525
32.7569
32.7526
32.747
32.7521
32.747
32.7299
32.7188
32.7139
32.711
32.7089
32.7088
32.7099
32.7114
85.4299
782.225
1874.82
2957.2
4004.82
4966.73
5770.5
6341.6
6618.37
6573.93
6221
5519.36
4588.56
3512.58
2395.21
1354.74
565.471
177.643
64.5826
39.7658
34.6138
33.4552
33.1046
32.9449
32.8535
32.7979
32.7645
32.744
32.7314
32.7294
32.7303
32.7304
32.7314
32.7237
32.7094
32.7095
32.7109
32.7142
32.7099
32.7041
32.7091
32.7036
32.6865
32.676
32.6715
32.6689
32.6668
32.6668
32.668
32.6696
71.6578
618.77
1495.5
2344.64
3147.7
3869.63
4462.11
4870.91
5051.34
4991.31
4682.22
4104.53
3345.1
2474.11
1580.44
794.67
288.596
95.2553
46.6582
36.1366
33.8376
33.238
33.0077
32.8839
32.8081
32.7606
32.7311
32.7122
32.699
32.6981
32.7008
32.6974
32.6959
32.6904
32.6769
32.6752
32.676
32.6776
32.6733
32.6687
32.6733
32.6677
32.6513
32.642
32.6378
32.6353
32.6333
32.6332
32.6343
32.636
53.7238
421.23
1079.91
1718.03
2310.45
2830.03
3242.89
3511.62
3605.12
3524.95
3246
2773.69
2170.65
1496.26
845.44
355.891
123.446
54.3048
37.9852
34.3
33.3869
33.0777
32.9239
32.8302
32.7695
32.7299
32.7041
32.6868
32.6741
32.6712
32.6731
32.6732
32.6743
32.6697
32.6555
32.6459
32.6446
32.6425
32.6406
32.6416
32.6443
32.6408
32.6266
32.6166
32.6121
32.6097
32.6079
32.6075
32.6086
32.6102
34.5558
215.031
632.984
1074.48
1485.11
1838.35
2104.68
2259.65
2284.41
2189.74
1941.33
1570.8
1126.22
672.675
313.185
122.611
56.6467
38.981
34.6252
33.5045
33.1377
32.9624
32.8549
32.7841
32.7369
32.7049
32.6829
32.6674
32.6556
32.6528
32.6529
32.6531
32.6564
32.6527
32.6393
32.6318
32.6328
32.6268
32.6218
32.6225
32.624
32.6231
32.611
32.5982
32.5935
32.5911
32.5891
32.5886
32.5897
32.5913
20.2479
74.1099
228.335
464.904
707.322
917.294
1066.27
1134.8
1121.33
1026.03
838.572
604.401
369.899
189.54
90.0131
50.5516
38.101
34.5644
33.5438
33.1794
32.9958
32.8795
32.801
32.7481
32.712
32.6871
32.6699
32.6571
32.6466
32.6435
32.645
32.6453
32.645
32.6377
32.6307
32.6327
32.6264
32.6138
32.6129
32.6139
32.6159
32.6136
32.6004
32.5885
32.5846
32.5839
32.5817
32.5786
32.5785
32.5801
13.8345
27.9819
61.8018
115.935
187.849
266.614
320.482
336.273
321.769
276.849
208.999
141.029
88.5509
56.6947
41.8618
36.1678
34.2052
33.5153
33.2194
33.0488
32.9307
32.8454
32.7853
32.7433
32.7133
32.6973
32.6922
32.6837
32.6709
32.6592
32.6573
32.6597
32.6572
32.653
32.6479
32.6442
32.6427
32.6358
32.6267
32.6256
32.6276
32.6265
32.6208
32.6101
32.6031
32.605
32.6024
32.5955
32.5925
32.5915
11.4667
15.9596
23.7599
34.603
47.5579
60.9655
71.0758
74.1619
70.8174
63.2285
54.009
45.8331
40.0216
36.5311
34.7567
33.8625
33.4962
33.3067
33.1735
33.0707
33.0063
32.9487
32.9
32.8622
32.8349
32.8158
32.8037
32.7958
32.7882
32.7829
32.7754
32.7684
32.7696
32.7674
32.7622
32.7522
32.7469
32.749
32.7466
32.7432
32.7398
32.7363
32.7321
32.7267
32.7205
32.7164
32.7137
32.7084
32.7036
32.6981
11.0474
13.8891
17.5614
22.0875
27.2168
32.0706
35.5111
37.0223
37.1328
36.609
35.8842
35.222
34.7255
34.3524
34.1682
34.0496
33.9645
33.8912
33.8179
33.7447
33.679
33.6263
33.5877
33.561
33.5433
33.5317
33.524
33.5163
33.5064
33.4964
33.4908
33.4883
33.4832
33.4779
33.4751
33.4703
33.4624
33.4542
33.4535
33.4549
33.4528
33.4492
33.4452
33.4413
33.4373
33.4331
33.4302
33.4269
33.4223
33.4149
14.2457
19.9805
24.15
27.7684
31.1724
34.128
36.241
37.4453
37.9717
38.1234
38.104
38.0337
37.962
37.9066
37.884
37.884
37.8826
37.8783
37.8655
37.8472
37.8282
37.8111
37.7977
37.7885
37.7842
37.7811
37.7745
37.7602
37.7521
37.7553
37.7581
37.7616
37.7647
37.7642
37.7544
37.7391
37.7331
37.7368
37.7398
37.743
37.7456
37.7484
37.7508
37.7533
37.7556
37.7582
37.7605
37.7608
37.759
37.753
148.856
119.605
91.7347
76.3617
68.7253
66.3132
65.145
64.7077
64.6651
64.7897
64.9325
65.0461
65.1431
65.2291
65.2793
65.2753
65.2195
65.1278
65.0272
64.9422
64.8778
64.8332
64.802
64.7849
64.778
64.7815
64.7962
64.8189
64.8428
64.8707
64.9054
64.9449
64.9862
65.0307
65.0808
65.1361
65.1921
65.2471
65.3024
65.3568
65.411
65.4649
65.5186
65.5713
65.618
65.6588
65.6944
65.7244
65.7484
65.7559
)
;

boundaryField
{
    AXIS
    {
        type            empty;
    }
    OUTLET
    {
        type            zeroGradient;
    }
    COFLOW
    {
        type            fixedValue;
        value           uniform 10;
    }
    PILOT
    {
        type            fixedValue;
        value           uniform 10;
    }
    FUEL
    {
        type            fixedValue;
        value           uniform 50;
    }
    WALL
    {
        type            compressible::epsilonWallFunction;
        Cmu             0.09;
        kappa           0.41;
        E               9.8;
        value           nonuniform List<scalar> 
50
(
148.856
119.605
91.7347
76.3617
68.7253
66.3132
65.145
64.7077
64.6651
64.7897
64.9325
65.0461
65.1431
65.2291
65.2793
65.2753
65.2195
65.1278
65.0272
64.9422
64.8778
64.8332
64.802
64.7849
64.778
64.7815
64.7962
64.8189
64.8428
64.8707
64.9054
64.9449
64.9862
65.0307
65.0808
65.1361
65.1921
65.2471
65.3024
65.3568
65.411
65.4649
65.5186
65.5713
65.618
65.6588
65.6944
65.7244
65.7484
65.7559
)
;
    }
    front
    {
        type            wedge;
    }
    back
    {
        type            wedge;
    }
}


// ************************************************************************* //
