/*--------------------------------*- C++ -*----------------------------------*\
| =========                 |                                                 |
| \\      /  F ield         | OpenFOAM: The Open Source CFD Toolbox           |
|  \\    /   O peration     | Version:  2.4.x                                 |
|   \\  /    A nd           | Web:      www.OpenFOAM.org                      |
|    \\/     M anipulation  |                                                 |
\*---------------------------------------------------------------------------*/
FoamFile
{
    version     2.0;
    format      ascii;
    class       volScalarField;
    location    "0.01";
    object      k;
}
// * * * * * * * * * * * * * * * * * * * * * * * * * * * * * * * * * * * * * //

dimensions      [0 2 -2 0 0 0 0];

internalField   nonuniform List<scalar> 
1250
(
5.53309
5.89732
6.04946
6.52155
7.54384
9.46617
14.4156
28.4984
49.363
62.3704
65.6215
63.1362
56.138
47.0343
37.3357
27.7477
18.7857
10.8971
4.94718
1.95136
1.0633
0.871181
0.829458
0.818147
0.813943
0.811943
0.810808
0.810036
0.809627
0.809452
0.809389
0.809374
0.809394
0.809401
0.809417
0.809408
0.809434
0.80945
0.809519
0.809505
0.809553
0.809573
0.809599
0.809466
0.809321
0.809222
0.809178
0.809092
0.808895
0.808764
5.58588
5.912
6.13201
6.72373
7.9073
9.99888
15.282
29.7151
49.9867
62.4009
65.4089
62.8555
55.8472
46.7907
37.1407
27.5973
18.6739
10.8187
4.90353
1.93653
1.05981
0.870339
0.829146
0.817942
0.813755
0.811756
0.810629
0.809931
0.809532
0.809321
0.809216
0.809167
0.809149
0.809144
0.809137
0.809133
0.809147
0.809163
0.809207
0.809222
0.809256
0.809292
0.809309
0.809225
0.809139
0.809082
0.809027
0.808945
0.808835
0.808755
5.59153
5.92557
6.3877
7.35504
8.82727
11.2651
17.3106
32.4659
51.335
62.4603
64.9414
62.2314
55.2001
46.2452
36.6992
27.251
18.4105
10.6281
4.79325
1.89758
1.05075
0.868319
0.828525
0.817603
0.813464
0.81147
0.810347
0.809658
0.809254
0.809024
0.808891
0.808818
0.808783
0.808769
0.808742
0.80871
0.808704
0.808712
0.80873
0.808739
0.808756
0.808789
0.808784
0.808682
0.808593
0.808536
0.808479
0.808409
0.80833
0.808277
5.39109
6.11048
7.11513
8.80628
10.6256
13.6227
20.7909
36.4102
53.095
62.4755
64.221
61.2767
54.224
45.4158
36.0241
26.7163
17.9987
10.3269
4.61937
1.83716
1.03697
0.865362
0.827719
0.817243
0.813196
0.811226
0.810123
0.809449
0.809045
0.808804
0.808652
0.808563
0.808524
0.808517
0.80848
0.808425
0.808399
0.80838
0.808381
0.808389
0.808401
0.808432
0.80842
0.808307
0.80821
0.808152
0.808097
0.808039
0.807979
0.807945
5.56061
7.13589
9.53366
11.8438
13.7404
17.3732
25.802
40.7566
54.7744
62.2721
63.1961
59.9707
52.9317
44.3169
35.1268
26.0026
17.447
9.92351
4.39026
1.75964
1.01958
0.86166
0.826735
0.816834
0.812918
0.810987
0.809915
0.809265
0.808868
0.808622
0.808459
0.80836
0.808326
0.808337
0.808291
0.808207
0.808173
0.808143
0.808122
0.808118
0.808132
0.808162
0.808142
0.808023
0.807919
0.80786
0.807806
0.807754
0.807707
0.807688
8.80015
13.1411
15.3015
16.3277
18.1061
22.3878
31.517
44.7702
55.99
61.6886
61.8328
58.3027
51.3491
42.9704
34.0239
25.1239
16.7669
9.42871
4.11572
1.66975
0.999743
0.857435
0.825609
0.816373
0.812618
0.810739
0.809702
0.80908
0.808696
0.80845
0.808282
0.808179
0.808152
0.808171
0.808117
0.808019
0.807981
0.807946
0.807918
0.807891
0.807895
0.80793
0.807907
0.807786
0.807675
0.807616
0.807563
0.807515
0.807475
0.807465
7.45056
15.5564
18.55
20.1367
22.6635
27.7891
36.8106
47.8217
56.5099
60.6072
60.1126
56.2843
49.5025
41.4012
32.7372
24.0969
15.9722
8.85507
3.8068
1.57244
0.978615
0.852901
0.824371
0.815854
0.812282
0.810466
0.809468
0.808875
0.808505
0.808263
0.808095
0.807994
0.807969
0.807988
0.807931
0.80783
0.807792
0.807758
0.80773
0.80769
0.807674
0.807705
0.807683
0.80756
0.807446
0.807389
0.807336
0.80729
0.807254
0.807252
3.92688
13.075
19.0125
22.6525
26.5845
32.4317
40.7131
49.5731
56.2093
58.9487
57.9952
53.9735
47.4216
39.6359
31.2893
22.9412
15.0789
8.21717
3.47588
1.47274
0.957297
0.848262
0.82305
0.81527
0.811897
0.810149
0.80919
0.808625
0.80827
0.808036
0.807872
0.807776
0.807749
0.807759
0.807703
0.807613
0.807577
0.807549
0.807526
0.807477
0.807439
0.807465
0.807438
0.807309
0.8072
0.807146
0.807093
0.807049
0.807015
0.807017
3.01813
10.5047
18.1898
23.7838
29.1128
35.4111
42.8175
49.9903
55.0418
56.7727
55.5009
51.4158
45.1426
37.7043
29.7094
21.6821
14.1046
7.53223
3.13641
1.37538
0.936739
0.843688
0.821666
0.814608
0.811437
0.809763
0.808841
0.808302
0.807963
0.807737
0.80758
0.807494
0.807468
0.807458
0.807401
0.807332
0.807301
0.807282
0.807275
0.807217
0.807148
0.807171
0.807136
0.807
0.8069
0.806848
0.806796
0.806752
0.806722
0.806726
2.33756
8.53896
16.779
23.7032
30.0585
36.586
43.2635
49.2263
53.097
54.1401
52.6878
48.6569
42.7044
35.6415
28.0226
20.3407
13.0699
6.82071
2.80257
1.28444
0.917688
0.839304
0.82022
0.813842
0.810871
0.809273
0.808386
0.80787
0.807545
0.80733
0.807181
0.807109
0.807096
0.807069
0.807
0.806947
0.806922
0.806919
0.806927
0.80686
0.806755
0.80677
0.806731
0.806596
0.806505
0.806455
0.806402
0.806359
0.806331
0.806338
1.42252
6.795
15.2149
22.8044
29.7118
36.2661
42.3811
47.3799
50.4472
51.0568
49.5384
45.6578
40.0658
33.4141
26.2035
18.8988
11.9648
6.08336
2.47811
1.20052
0.900116
0.835068
0.818671
0.812928
0.810153
0.808629
0.807776
0.807281
0.806972
0.806765
0.806625
0.806581
0.806598
0.806553
0.806453
0.806406
0.806396
0.806405
0.806415
0.806342
0.806203
0.806204
0.806167
0.806042
0.805959
0.80591
0.805857
0.805814
0.805787
0.805795
1.35713
6.03872
13.8881
21.3985
28.3555
34.7138
40.265
44.5599
47.0668
47.4129
45.9178
42.2783
37.0967
30.9033
24.1481
17.272
10.7323
5.2863
2.15305
1.12057
0.883275
0.830807
0.816968
0.811843
0.809269
0.807822
0.807003
0.806529
0.806233
0.806035
0.805902
0.805879
0.805911
0.805853
0.805737
0.805694
0.805699
0.805725
0.805733
0.805647
0.805484
0.805462
0.805421
0.805318
0.805241
0.80519
0.805137
0.805093
0.805067
0.805075
1.3659
5.73364
12.7916
19.7381
26.277
32.1806
37.1719
40.8955
42.9894
43.193
41.7808
38.4471
33.7188
28.0304
21.7794
15.3915
9.31634
4.41269
1.82821
1.04437
0.867035
0.826517
0.815151
0.810642
0.80828
0.806921
0.806141
0.805686
0.805403
0.805212
0.805083
0.805066
0.805099
0.805039
0.804921
0.804875
0.804872
0.804888
0.80491
0.804841
0.80466
0.804619
0.80458
0.804494
0.804418
0.804363
0.804309
0.804265
0.804237
0.804246
1.37327
5.49229
11.7713
17.9405
23.7763
29.0324
33.4118
36.6139
38.3733
38.4951
37.204
34.2063
29.952
24.7963
19.091
13.2372
7.71062
3.49208
1.52197
0.975367
0.851983
0.822348
0.8133
0.8094
0.807266
0.806009
0.805276
0.804846
0.804575
0.804387
0.804255
0.804221
0.804243
0.804195
0.804091
0.804042
0.80403
0.804045
0.804076
0.804007
0.803817
0.803758
0.803725
0.803654
0.803577
0.803518
0.803463
0.803417
0.803389
0.803397
1.36557
5.16598
10.6954
16.0318
21.0476
25.5421
29.2597
31.949
33.3954
33.4515
32.276
29.606
25.8227
21.2093
16.0825
10.8088
5.95202
2.59492
1.25908
0.917517
0.838828
0.818457
0.811484
0.808178
0.806289
0.805153
0.804479
0.804075
0.803816
0.803629
0.803492
0.803421
0.803396
0.803374
0.803321
0.80326
0.803232
0.803245
0.803279
0.803211
0.803024
0.802953
0.802926
0.802866
0.802786
0.802723
0.802667
0.80262
0.802592
0.802599
1.33685
4.67547
9.459
13.974
18.1611
21.8767
24.9202
27.09
28.2167
28.1866
27.0927
24.7231
21.3907
17.3138
12.785
8.17017
4.15673
1.82927
1.06076
0.873594
0.828128
0.814966
0.809753
0.807022
0.805393
0.804394
0.803788
0.803414
0.803165
0.802979
0.802837
0.802749
0.802725
0.802743
0.802691
0.802576
0.80252
0.802509
0.802538
0.802489
0.802335
0.802253
0.802227
0.802174
0.802098
0.80203
0.801973
0.801924
0.801894
0.801902
1.2866
3.99666
7.99783
11.72
15.1176
18.0863
20.4817
22.1418
22.9351
22.7986
21.7466
19.6397
16.721
13.1791
9.2725
5.4532
2.57344
1.29315
0.932734
0.843875
0.820069
0.811956
0.808158
0.805969
0.804608
0.803751
0.803214
0.80287
0.802633
0.802449
0.802306
0.802205
0.802175
0.8022
0.802154
0.802025
0.801945
0.801899
0.801873
0.801843
0.801758
0.801683
0.801645
0.8016
0.80154
0.801466
0.801405
0.801355
0.801324
0.801331
1.21274
3.10736
6.26503
9.2185
11.8809
14.1646
15.9594
17.1417
17.6113
17.3534
16.3132
14.4395
11.9189
8.91912
5.75822
3.02801
1.51142
0.999491
0.862748
0.825973
0.814348
0.809426
0.806714
0.805023
0.803928
0.803213
0.802745
0.802431
0.802206
0.802031
0.801892
0.801786
0.801709
0.801689
0.801702
0.801637
0.801508
0.801452
0.801414
0.801376
0.801315
0.801247
0.801198
0.801154
0.801093
0.801017
0.800958
0.800908
0.800877
0.800884
1.1256
2.09734
4.24585
6.42046
8.39678
10.0696
11.3279
12.0822
12.2616
11.8981
10.8739
9.24253
7.16471
4.85637
2.78408
1.52006
1.02436
0.874013
0.830321
0.816266
0.810512
0.807423
0.80548
0.804198
0.80334
0.802758
0.802357
0.802073
0.801864
0.801697
0.801562
0.801458
0.801373
0.80136
0.80139
0.801322
0.801169
0.801109
0.801069
0.801024
0.800982
0.800927
0.800857
0.8008
0.800736
0.800668
0.800611
0.800561
0.80053
0.800539
1.05249
1.3461
2.19382
3.47268
4.75583
5.85205
6.63531
7.02352
6.99334
6.56636
5.65502
4.43132
3.10131
1.97381
1.28246
0.976572
0.866988
0.830189
0.817019
0.811236
0.807988
0.805875
0.804444
0.803474
0.802811
0.802343
0.802003
0.801749
0.801556
0.801402
0.801279
0.801189
0.801119
0.80107
0.801036
0.800969
0.800878
0.800823
0.800782
0.800731
0.800682
0.800643
0.800583
0.800509
0.800439
0.800375
0.800319
0.800269
0.800239
0.800248
1.01595
1.08001
1.23639
1.51644
1.9163
2.35433
2.66487
2.77031
2.70057
2.44229
2.031
1.60044
1.24565
1.01746
0.899683
0.847516
0.825834
0.816367
0.811503
0.808435
0.806242
0.804651
0.80353
0.802757
0.802219
0.801827
0.801528
0.801305
0.801134
0.801006
0.800924
0.800901
0.800924
0.800894
0.800768
0.800629
0.80055
0.800488
0.80044
0.800393
0.800352
0.80029
0.800208
0.800146
0.800089
0.800023
0.799961
0.799904
0.799858
0.79986
0.999906
1.00349
1.01341
1.03268
1.06366
1.10149
1.13022
1.12848
1.09946
1.0461
0.98248
0.923217
0.876601
0.84453
0.827373
0.818333
0.813227
0.809955
0.807541
0.805542
0.803871
0.802579
0.801658
0.801039
0.800628
0.800342
0.800128
0.799986
0.799869
0.799845
0.799882
0.799864
0.799831
0.799796
0.799745
0.799678
0.799608
0.799534
0.799462
0.799394
0.799334
0.79927
0.799198
0.79913
0.799062
0.798983
0.798897
0.798779
0.798657
0.798587
0.993769
0.979461
0.961824
0.940819
0.917006
0.893023
0.872728
0.857378
0.845468
0.835219
0.826444
0.819206
0.813339
0.808873
0.805776
0.803544
0.801753
0.8002
0.798734
0.79733
0.796053
0.794975
0.79418
0.793696
0.793451
0.793374
0.793373
0.793329
0.793199
0.793046
0.79292
0.792799
0.792698
0.792702
0.792673
0.792567
0.792526
0.792526
0.792436
0.792306
0.79229
0.792294
0.792236
0.792142
0.792056
0.791986
0.791909
0.791787
0.791677
0.791613
0.990387
0.960479
0.920569
0.882494
0.84506
0.814751
0.794124
0.782079
0.775351
0.771303
0.768557
0.766447
0.76472
0.76341
0.76268
0.762339
0.761955
0.761202
0.760116
0.75895
0.757904
0.75708
0.756512
0.756163
0.756034
0.756065
0.756059
0.755996
0.755882
0.755691
0.75555
0.755558
0.755427
0.755348
0.755391
0.755431
0.75551
0.755507
0.755475
0.755454
0.755463
0.755437
0.755412
0.755372
0.755334
0.755333
0.755194
0.755102
0.755171
0.755096
0.975475
0.843075
0.706291
0.62477
0.582097
0.568277
0.561511
0.558954
0.558691
0.559406
0.560233
0.560894
0.561458
0.561954
0.562247
0.562228
0.56191
0.561383
0.560804
0.560314
0.559942
0.559685
0.559506
0.559409
0.559371
0.559393
0.55948
0.559613
0.559753
0.559916
0.560118
0.560348
0.560588
0.560846
0.561137
0.561457
0.561782
0.562101
0.562421
0.562736
0.56305
0.563362
0.563672
0.563977
0.564248
0.564484
0.56469
0.564864
0.565004
0.56505
)
;

boundaryField
{
    AXIS
    {
        type            empty;
    }
    OUTLET
    {
        type            zeroGradient;
    }
    COFLOW
    {
        type            fixedValue;
        value           uniform 1;
    }
    PILOT
    {
        type            fixedValue;
        value           uniform 1;
    }
    FUEL
    {
        type            fixedValue;
        value           uniform 5;
    }
    WALL
    {
        type            compressible::kqRWallFunction;
        value           nonuniform List<scalar> 
50
(
0.975475
0.843075
0.706291
0.62477
0.582097
0.568277
0.561511
0.558954
0.558691
0.559406
0.560233
0.560894
0.561458
0.561954
0.562247
0.562228
0.56191
0.561383
0.560804
0.560314
0.559942
0.559685
0.559506
0.559409
0.559371
0.559393
0.55948
0.559613
0.559753
0.559916
0.560118
0.560348
0.560588
0.560846
0.561137
0.561457
0.561782
0.562101
0.562421
0.562736
0.56305
0.563362
0.563672
0.563977
0.564248
0.564484
0.56469
0.564864
0.565004
0.56505
)
;
    }
    front
    {
        type            wedge;
    }
    back
    {
        type            wedge;
    }
}


// ************************************************************************* //
