/*--------------------------------*- C++ -*----------------------------------*\
| =========                 |                                                 |
| \\      /  F ield         | OpenFOAM: The Open Source CFD Toolbox           |
|  \\    /   O peration     | Version:  2.4.x                                 |
|   \\  /    A nd           | Web:      www.OpenFOAM.org                      |
|    \\/     M anipulation  |                                                 |
\*---------------------------------------------------------------------------*/
FoamFile
{
    version     2.0;
    format      ascii;
    class       volScalarField;
    location    "0.01";
    object      mut;
}
// * * * * * * * * * * * * * * * * * * * * * * * * * * * * * * * * * * * * * //

dimensions      [1 -1 -1 0 0 0 0];

internalField   nonuniform List<scalar> 
1250
(
0.0366393
0.0208591
0.0127785
0.00836286
0.00614786
0.00469725
0.00387885
0.00427051
0.00518663
0.00635397
0.00712098
0.00780511
0.00822762
0.00836062
0.00808483
0.00743698
0.00633925
0.00476377
0.00294761
0.00173108
0.00164632
0.0019689
0.00209409
0.00211125
0.00210941
0.00210667
0.00210487
0.0021036
0.00210269
0.00210187
0.00210132
0.00210112
0.00210095
0.00210111
0.00210118
0.00210093
0.00210099
0.00210104
0.0021011
0.00210105
0.00210094
0.0021009
0.00210071
0.00210044
0.00210039
0.00210019
0.00209988
0.00209971
0.00209954
0.0020992
0.03521
0.0190002
0.0113545
0.00744626
0.00567821
0.00448372
0.00385425
0.00429487
0.00523921
0.00636316
0.00712719
0.00780788
0.00822292
0.00835224
0.00807203
0.00742172
0.0063216
0.00474527
0.00293194
0.00172651
0.0016496
0.00197109
0.00209441
0.00211116
0.00210929
0.00210655
0.00210476
0.00210358
0.00210273
0.00210189
0.00210128
0.00210095
0.00210069
0.00210087
0.00210094
0.00210068
0.00210083
0.00210089
0.00210094
0.0021009
0.00210074
0.00210072
0.00210056
0.00210036
0.00210037
0.00210022
0.00209991
0.00209969
0.00209956
0.00209925
0.0313878
0.0148623
0.00856097
0.00584506
0.00484783
0.00409282
0.00378705
0.00436975
0.0053621
0.00637709
0.00714231
0.00781173
0.00821473
0.00833342
0.0080443
0.00738729
0.00628039
0.00470065
0.002893
0.00171502
0.00165889
0.00197726
0.00209546
0.00211107
0.00210907
0.00210633
0.00210454
0.0021034
0.00210261
0.00210182
0.0021011
0.00210065
0.00210041
0.0021007
0.00210078
0.00210042
0.00210052
0.00210061
0.0021006
0.00210055
0.00210039
0.00210028
0.0021002
0.00210013
0.00210007
0.00209993
0.00209964
0.00209944
0.00209926
0.00209896
0.0230887
0.00916768
0.00544105
0.00431172
0.00393283
0.00371068
0.00378191
0.00449416
0.00550795
0.00641855
0.00717152
0.00781982
0.00820601
0.00830261
0.00800186
0.00733364
0.00621525
0.00462923
0.00283093
0.00169755
0.00167396
0.00198677
0.00209712
0.00211101
0.00210881
0.00210608
0.00210432
0.00210321
0.00210248
0.00210162
0.00210076
0.00210017
0.00210006
0.00210067
0.00210072
0.00210026
0.00210026
0.00210025
0.00210017
0.00210013
0.00210001
0.00209993
0.00209999
0.00209998
0.00209979
0.00209969
0.00209944
0.00209924
0.002099
0.00209871
0.0105848
0.0039667
0.00340314
0.00328813
0.00332898
0.0034613
0.00391038
0.00464352
0.00564398
0.00648309
0.00720816
0.00783
0.00819183
0.00826025
0.00794342
0.00725992
0.00612587
0.00453142
0.00274801
0.00167658
0.00169493
0.00199887
0.00209915
0.00211091
0.00210849
0.00210578
0.00210406
0.00210298
0.0021023
0.00210144
0.00210051
0.00209985
0.00209984
0.00210066
0.00210071
0.00210014
0.00210003
0.00209993
0.00209975
0.00209965
0.00209956
0.00209956
0.00209975
0.00209973
0.00209946
0.00209942
0.00209921
0.00209899
0.0020987
0.00209842
0.00238421
0.00238435
0.0026072
0.00278606
0.00302887
0.00342324
0.00405653
0.00485936
0.00575745
0.00655138
0.00724778
0.00784255
0.00817196
0.00820879
0.00787153
0.00716519
0.006012
0.00440785
0.00264713
0.00165506
0.00172196
0.00201283
0.00210136
0.00211075
0.00210809
0.00210542
0.00210374
0.0021027
0.00210205
0.00210122
0.00210026
0.00209957
0.00209964
0.00210055
0.00210057
0.00209999
0.00209972
0.00209939
0.00209934
0.00209921
0.00209888
0.00209907
0.00209949
0.00209936
0.00209904
0.00209909
0.0020989
0.00209867
0.00209834
0.0020981
0.000890197
0.00169244
0.00220712
0.00259277
0.00299966
0.0035424
0.00422217
0.00505128
0.00586867
0.00663283
0.00729773
0.00784619
0.00814728
0.00814366
0.00778373
0.00704856
0.00587355
0.00425949
0.00253186
0.00163626
0.00175485
0.00202781
0.00210356
0.00211051
0.00210762
0.00210498
0.00210335
0.00210235
0.00210173
0.00210093
0.00209998
0.00209929
0.00209939
0.00210031
0.00210025
0.00209964
0.00209935
0.00209894
0.00209894
0.0020988
0.00209831
0.0020986
0.00209917
0.00209884
0.00209851
0.00209869
0.00209853
0.00209828
0.00209795
0.00209773
0.000374962
0.00135324
0.00203188
0.0025639
0.00309021
0.00369577
0.00443048
0.00520183
0.00597579
0.00670524
0.00733964
0.0078401
0.00810791
0.00806088
0.00767851
0.00691282
0.00571067
0.00408782
0.00240674
0.00162366
0.00179285
0.00204292
0.00210558
0.00211016
0.00210706
0.00210447
0.00210288
0.00210192
0.00210132
0.00210056
0.00209962
0.00209896
0.00209907
0.00209992
0.00209975
0.0020992
0.00209892
0.00209847
0.00209854
0.00209841
0.00209779
0.00209815
0.00209873
0.00209815
0.00209785
0.00209822
0.00209809
0.00209783
0.00209751
0.0020973
0.000306734
0.00118156
0.00199321
0.00263365
0.00323871
0.00388209
0.00459712
0.00534036
0.00606613
0.00676971
0.00734914
0.00782198
0.00805441
0.00795769
0.00755742
0.00676071
0.00552395
0.0038953
0.00227744
0.00162058
0.0018346
0.00205733
0.00210727
0.00210968
0.00210641
0.00210388
0.00210233
0.00210141
0.00210083
0.00210008
0.00209918
0.00209856
0.00209868
0.00209939
0.00209913
0.00209869
0.00209844
0.00209799
0.00209816
0.00209803
0.00209724
0.00209764
0.0020981
0.00209726
0.00209707
0.00209767
0.00209758
0.00209731
0.002097
0.00209681
0.000333341
0.00118019
0.00205689
0.00274584
0.00339147
0.00405008
0.0047486
0.00545393
0.00616006
0.00682107
0.00735424
0.00779002
0.00796772
0.00783985
0.00741343
0.00658588
0.00531469
0.00368592
0.0021508
0.00162972
0.00187806
0.00207032
0.00210851
0.00210904
0.00210567
0.0021032
0.0021017
0.00210081
0.00210024
0.00209948
0.00209862
0.00209808
0.00209823
0.00209881
0.00209847
0.00209812
0.0020979
0.00209749
0.00209774
0.0020976
0.00209662
0.00209701
0.00209743
0.00209653
0.00209641
0.00209708
0.00209699
0.00209672
0.00209642
0.00209623
0.00123483
0.00136776
0.00220184
0.00289859
0.00355516
0.00421201
0.00488207
0.00557093
0.00624261
0.00683236
0.00734719
0.0077364
0.00785613
0.00770232
0.0072403
0.00638258
0.0050822
0.00345844
0.00203066
0.00165322
0.00192215
0.0020817
0.00210928
0.00210824
0.00210481
0.00210241
0.00210097
0.0021001
0.00209955
0.00209873
0.00209791
0.00209753
0.00209776
0.00209821
0.00209777
0.00209745
0.0020973
0.00209694
0.0020972
0.00209704
0.00209589
0.00209621
0.00209668
0.00209589
0.0020958
0.00209641
0.00209631
0.00209603
0.00209574
0.00209556
0.00169814
0.00160761
0.00240234
0.00310069
0.00374733
0.00439095
0.00503667
0.00568778
0.00630162
0.00683511
0.00732107
0.00765268
0.00771242
0.00752734
0.00702243
0.00613319
0.00481742
0.00319908
0.00191678
0.0016947
0.00196734
0.00209173
0.00210959
0.00210723
0.0021038
0.00210149
0.0021001
0.00209927
0.00209871
0.00209781
0.00209704
0.00209678
0.00209698
0.00209733
0.00209696
0.00209666
0.00209659
0.0020963
0.00209654
0.00209634
0.00209507
0.00209524
0.00209589
0.00209543
0.00209529
0.00209564
0.0020955
0.00209522
0.00209492
0.00209476
0.00182678
0.00183881
0.0026319
0.00331653
0.00395671
0.00457989
0.00519038
0.00577602
0.00634037
0.0068326
0.00726857
0.00750981
0.00752819
0.00730452
0.00674249
0.00581563
0.00448511
0.00289599
0.00181636
0.0017585
0.0020124
0.00210017
0.00210939
0.00210601
0.00210264
0.00210044
0.00209912
0.00209832
0.00209772
0.00209675
0.002096
0.00209581
0.00209593
0.00209624
0.00209605
0.00209574
0.00209561
0.00209527
0.00209559
0.00209548
0.00209413
0.00209417
0.00209493
0.00209484
0.00209468
0.00209476
0.00209458
0.00209428
0.00209398
0.00209383
0.00190958
0.00204548
0.00286774
0.00355002
0.00416349
0.00475188
0.00532627
0.00586573
0.00637973
0.00681314
0.0071632
0.00732823
0.00730105
0.0070123
0.00639698
0.0054077
0.00406447
0.00255444
0.00175044
0.00184544
0.0020536
0.00210635
0.00210863
0.00210459
0.00210137
0.00209931
0.00209806
0.00209731
0.00209668
0.00209568
0.00209493
0.0020947
0.00209471
0.00209502
0.00209508
0.00209474
0.00209455
0.00209424
0.0020946
0.00209452
0.00209312
0.00209306
0.0020939
0.00209408
0.00209392
0.00209381
0.00209359
0.00209328
0.00209297
0.00209283
0.00201097
0.00220209
0.00307148
0.0037672
0.00437771
0.00493505
0.00546144
0.00594902
0.00638561
0.0067282
0.00699453
0.007102
0.00699558
0.0066181
0.00594025
0.00489114
0.00353834
0.00220648
0.00174964
0.00194567
0.0020858
0.00210972
0.0021073
0.00210305
0.00210006
0.00209817
0.00209701
0.0020963
0.00209569
0.00209483
0.00209405
0.00209363
0.00209336
0.00209367
0.00209412
0.00209373
0.00209346
0.00209318
0.00209357
0.00209351
0.00209214
0.00209203
0.00209291
0.00209323
0.00209305
0.00209283
0.00209259
0.00209227
0.00209196
0.00209181
0.00216299
0.00227955
0.00319634
0.00391229
0.00450911
0.00504042
0.00551889
0.00594437
0.00629881
0.00657424
0.0067681
0.00677668
0.00656911
0.006109
0.00533325
0.00425299
0.0029145
0.00192888
0.0018346
0.00203574
0.00210523
0.00211022
0.00210551
0.00210146
0.00209879
0.0020971
0.00209604
0.00209537
0.00209484
0.00209396
0.00209312
0.00209261
0.00209237
0.00209291
0.0020935
0.00209284
0.0020924
0.00209208
0.00209244
0.00209249
0.0020913
0.00209116
0.00209204
0.00209236
0.00209218
0.00209191
0.00209166
0.00209133
0.00209101
0.00209085
0.00240959
0.00228798
0.00321414
0.00394248
0.00453977
0.00503876
0.00547375
0.00584113
0.00612067
0.00631081
0.00639656
0.00628535
0.00597744
0.00540463
0.00455616
0.00344017
0.00228937
0.00183113
0.00197284
0.00209264
0.00211231
0.00210844
0.00210339
0.00209987
0.0020976
0.00209613
0.00209519
0.00209457
0.00209414
0.00209319
0.00209223
0.00209188
0.00209177
0.0020922
0.00209278
0.00209216
0.00209164
0.00209123
0.00209131
0.00209139
0.00209058
0.00209048
0.00209126
0.00209155
0.00209143
0.00209112
0.00209085
0.00209051
0.00209019
0.00209003
0.00287592
0.00218005
0.00303266
0.00376775
0.00436105
0.00483781
0.00522733
0.00552896
0.00572578
0.0058152
0.00578922
0.0055662
0.00512679
0.00446744
0.00356794
0.00252986
0.00191281
0.00194041
0.00207905
0.00211349
0.00211135
0.00210553
0.00210122
0.00209838
0.00209652
0.00209529
0.00209447
0.0020939
0.0020935
0.00209274
0.00209185
0.00209124
0.00209073
0.00209087
0.00209179
0.00209201
0.00209136
0.00209116
0.00209101
0.00209069
0.00209013
0.00208993
0.00209051
0.00209084
0.00209074
0.00209042
0.00209014
0.00208982
0.0020895
0.00208935
0.00387309
0.00206116
0.00263166
0.00328973
0.00383768
0.004294
0.00464107
0.00487591
0.00498756
0.00498006
0.00482734
0.00450051
0.00398472
0.00326008
0.00244616
0.00194597
0.00195129
0.00207796
0.00211535
0.00211376
0.00210736
0.00210248
0.00209921
0.00209702
0.00209554
0.00209452
0.0020938
0.00209328
0.0020929
0.00209217
0.00209142
0.00209082
0.00209012
0.00209024
0.0020912
0.00209127
0.00209035
0.00209036
0.00209042
0.00209007
0.00208969
0.00208939
0.00208973
0.00209018
0.00209007
0.00208979
0.00208954
0.00208922
0.00208891
0.00208876
0.00580038
0.00255453
0.00212226
0.0024926
0.00294734
0.00333245
0.00361081
0.00377082
0.00379626
0.0037121
0.0034592
0.00305265
0.00254301
0.0020871
0.00190406
0.00199119
0.0020925
0.00211841
0.00211517
0.00210848
0.00210331
0.00209971
0.00209724
0.00209555
0.00209437
0.00209349
0.00209278
0.00209225
0.00209188
0.00209122
0.00209045
0.00208991
0.00208953
0.00208968
0.0020899
0.00208937
0.00208924
0.00208971
0.00208949
0.0020891
0.00208865
0.00208852
0.00208898
0.00208928
0.00208909
0.00208872
0.00208849
0.00208835
0.0020881
0.00208796
0.00792381
0.00441103
0.00259691
0.0020562
0.00199272
0.00208548
0.00219857
0.00225588
0.00224584
0.00215394
0.00200133
0.00187067
0.00182953
0.00192427
0.00204806
0.00210845
0.00211874
0.0021137
0.00210737
0.00210229
0.00209839
0.00209551
0.00209349
0.00209212
0.0020912
0.00209015
0.00208888
0.00208822
0.00208812
0.00208816
0.00208781
0.00208749
0.00208773
0.00208779
0.00208741
0.00208686
0.00208649
0.00208655
0.00208682
0.00208658
0.00208617
0.00208585
0.00208571
0.00208601
0.00208608
0.00208553
0.00208529
0.00208535
0.00208522
0.0020852
0.00926703
0.00670011
0.00458374
0.00326195
0.00251167
0.0020955
0.00188834
0.00180303
0.00179379
0.00182248
0.00188679
0.00196812
0.00203602
0.00207301
0.00209274
0.00210201
0.00209881
0.00209388
0.00208978
0.0020859
0.00208128
0.0020782
0.00207648
0.00207564
0.00207519
0.00207489
0.00207452
0.00207424
0.00207408
0.00207425
0.00207488
0.00207518
0.00207489
0.0020748
0.00207481
0.00207504
0.00207496
0.00207439
0.0020741
0.0020739
0.00207374
0.00207356
0.00207338
0.0020733
0.00207326
0.00207304
0.00207267
0.00207231
0.0020719
0.0020718
0.00950336
0.00734156
0.00559791
0.00425752
0.00328164
0.00264059
0.00227723
0.00210808
0.00204407
0.00202382
0.00202209
0.00202469
0.00202472
0.00202455
0.00202004
0.00201592
0.00201199
0.00200852
0.00200549
0.00200277
0.00200023
0.00199792
0.0019962
0.00199532
0.00199512
0.00199539
0.00199581
0.00199601
0.00199592
0.0019957
0.00199536
0.00199486
0.00199461
0.0019949
0.00199488
0.00199458
0.00199479
0.00199521
0.00199475
0.00199395
0.00199393
0.0019941
0.00199398
0.00199366
0.0019934
0.00199322
0.00199293
0.00199243
0.00199207
0.0019921
0.0073201
0.0049085
0.00373048
0.00298147
0.00243532
0.00206769
0.00184978
0.0017364
0.00168302
0.00165888
0.00164796
0.00164197
0.00163768
0.00163447
0.00163231
0.00163085
0.00162926
0.00162621
0.00162211
0.0016179
0.00161424
0.00161144
0.00160958
0.00160846
0.00160807
0.00160832
0.00160854
0.00160886
0.00160869
0.00160771
0.00160696
0.00160681
0.00160608
0.00160573
0.0016063
0.00160707
0.00160762
0.00160741
0.0016071
0.00160682
0.0016067
0.00160641
0.00160615
0.00160582
0.0016055
0.00160532
0.00160457
0.0016041
0.0016044
0.00160427
0.000679612
0.000631795
0.000578131
0.000543446
0.000524161
0.000517738
0.000514546
0.000513317
0.00051317
0.000513493
0.00051388
0.000514192
0.000514456
0.000514684
0.00051482
0.000514814
0.000514668
0.000514423
0.000514152
0.00051392
0.000513742
0.000513618
0.000513531
0.000513481
0.000513459
0.000513465
0.000513499
0.000513555
0.000513614
0.000513682
0.000513767
0.000513865
0.000513967
0.000514077
0.000514201
0.000514339
0.000514477
0.000514613
0.000514748
0.00051488
0.000515011
0.00051514
0.000515268
0.000515392
0.000515501
0.000515592
0.00051567
0.000515732
0.000515777
0.00051578
)
;

boundaryField
{
    AXIS
    {
        type            empty;
    }
    OUTLET
    {
        type            calculated;
        value           nonuniform List<scalar> 
25
(
0.00209915
0.00209921
0.00209892
0.00209867
0.00209838
0.00209805
0.00209769
0.00209726
0.00209676
0.00209619
0.00209551
0.00209471
0.00209379
0.00209279
0.00209177
0.00209081
0.00208998
0.0020893
0.00208871
0.00208791
0.00208516
0.00207175
0.00199206
0.00160424
0.000515769
)
;
    }
    COFLOW
    {
        type            calculated;
        value           nonuniform List<scalar> 
15
(
0.0106314
0.0106316
0.0106316
0.0106315
0.0106315
0.0106315
0.0106315
0.0106315
0.0106315
0.0106315
0.0106315
0.0106315
0.0106315
0.0106315
0.0106315
)
;
    }
    PILOT
    {
        type            calculated;
        value           nonuniform List<scalar> 5(0.00141211 0.00141213 0.00141227 0.00141231 0.00141234);
    }
    FUEL
    {
        type            calculated;
        value           nonuniform List<scalar> 5(0.047333 0.0473309 0.0473364 0.0473543 0.0473624);
    }
    WALL
    {
        type            mutkWallFunction;
        Cmu             0.09;
        kappa           0.41;
        E               9.8;
        value           nonuniform List<scalar> 
50
(
8.18446e-05
7.58198e-05
6.90074e-05
6.45882e-05
6.21449e-05
6.1332e-05
6.09299e-05
6.07772e-05
6.07613e-05
6.08038e-05
6.08531e-05
6.08923e-05
6.09256e-05
6.09548e-05
6.09719e-05
6.09703e-05
6.09508e-05
6.09189e-05
6.08838e-05
6.08539e-05
6.0831e-05
6.08149e-05
6.08034e-05
6.07968e-05
6.07936e-05
6.07939e-05
6.0798e-05
6.08049e-05
6.0812e-05
6.08205e-05
6.08312e-05
6.08435e-05
6.08563e-05
6.08702e-05
6.08859e-05
6.09033e-05
6.09208e-05
6.09379e-05
6.0955e-05
6.09717e-05
6.09882e-05
6.10046e-05
6.10207e-05
6.10365e-05
6.10501e-05
6.10615e-05
6.10712e-05
6.10788e-05
6.10843e-05
6.10842e-05
)
;
    }
    front
    {
        type            wedge;
    }
    back
    {
        type            wedge;
    }
}


// ************************************************************************* //
