/*--------------------------------*- C++ -*----------------------------------*\
| =========                 |                                                 |
| \\      /  F ield         | OpenFOAM: The Open Source CFD Toolbox           |
|  \\    /   O peration     | Version:  2.4.x                                 |
|   \\  /    A nd           | Web:      www.OpenFOAM.org                      |
|    \\/     M anipulation  |                                                 |
\*---------------------------------------------------------------------------*/
FoamFile
{
    version     2.0;
    format      ascii;
    class       volScalarField;
    location    "0.01";
    object      rho;
}
// * * * * * * * * * * * * * * * * * * * * * * * * * * * * * * * * * * * * * //

dimensions      [1 -3 0 0 0 0 0];

internalField   nonuniform List<scalar> 
1250
(
1.0022
0.890026
0.792828
0.712668
0.647402
0.584093
0.486641
0.380368
0.345131
0.358477
0.381105
0.424962
0.479603
0.548539
0.624751
0.714683
0.816551
0.928921
1.05364
1.14046
1.17214
1.1794
1.18082
1.18108
1.18111
1.18109
1.18108
1.18106
1.18104
1.18101
1.18099
1.18097
1.18094
1.18091
1.18088
1.18085
1.18082
1.18079
1.18075
1.18072
1.18068
1.18064
1.1806
1.18056
1.18051
1.18047
1.18042
1.18037
1.18032
1.18027
0.994333
0.873145
0.775995
0.697022
0.635466
0.571904
0.474655
0.376542
0.34597
0.358792
0.38218
0.426286
0.480919
0.549875
0.625997
0.715944
0.817774
0.930217
1.05469
1.14094
1.17225
1.17942
1.18083
1.18108
1.18111
1.18109
1.18108
1.18106
1.18104
1.18101
1.18099
1.18097
1.18094
1.18091
1.18088
1.18085
1.18082
1.18079
1.18075
1.18072
1.18068
1.18064
1.1806
1.18056
1.18051
1.18047
1.18042
1.18037
1.18032
1.18027
0.971336
0.829201
0.734747
0.662297
0.610787
0.54469
0.450924
0.369103
0.348485
0.359139
0.384669
0.429106
0.484019
0.552913
0.628972
0.718977
0.820756
0.933437
1.05735
1.14218
1.17256
1.17948
1.18084
1.18108
1.18111
1.18109
1.18108
1.18106
1.18104
1.18101
1.18099
1.18097
1.18094
1.18091
1.18088
1.18085
1.18082
1.18079
1.18075
1.18072
1.18068
1.18064
1.1806
1.18056
1.18051
1.18047
1.18042
1.18037
1.18032
1.18027
0.908443
0.744455
0.664155
0.61208
0.560525
0.502869
0.422204
0.360673
0.350904
0.361109
0.388941
0.43357
0.489066
0.557547
0.633686
0.723802
0.825531
0.938632
1.06162
1.14415
1.17305
1.17957
1.18086
1.18108
1.18111
1.1811
1.18108
1.18106
1.18104
1.18101
1.18099
1.18097
1.18094
1.18091
1.18088
1.18085
1.18082
1.18079
1.18075
1.18072
1.18068
1.18064
1.1806
1.18056
1.18051
1.18047
1.18042
1.18037
1.18032
1.18027
0.723891
0.598801
0.568047
0.532757
0.499376
0.451292
0.394248
0.354138
0.352865
0.364989
0.394992
0.439598
0.495902
0.563832
0.640067
0.730343
0.832023
0.945719
1.06735
1.14669
1.17367
1.17969
1.18088
1.18109
1.18111
1.1811
1.18108
1.18106
1.18104
1.18101
1.18099
1.18097
1.18094
1.18091
1.18088
1.18085
1.18082
1.18079
1.18075
1.18072
1.18068
1.18064
1.1806
1.18056
1.18051
1.18047
1.18042
1.18037
1.18032
1.18027
0.341179
0.429886
0.452473
0.448346
0.433906
0.405743
0.370884
0.352527
0.354654
0.370177
0.402826
0.4475
0.504403
0.571959
0.648354
0.738504
0.840134
0.954594
1.07438
1.14969
1.17438
1.17983
1.1809
1.18109
1.18111
1.1811
1.18108
1.18106
1.18104
1.18101
1.18099
1.18097
1.18094
1.18091
1.18088
1.18085
1.18082
1.18079
1.18075
1.18072
1.18068
1.18064
1.1806
1.18056
1.18051
1.18047
1.18042
1.18037
1.18032
1.18027
0.222764
0.322654
0.367089
0.383997
0.385605
0.372789
0.356303
0.352226
0.3584
0.37784
0.412525
0.457334
0.514813
0.581687
0.658365
0.748169
0.849749
0.965135
1.0825
1.15298
1.17514
1.17998
1.18093
1.18109
1.18111
1.1811
1.18108
1.18106
1.18104
1.18101
1.18099
1.18097
1.18094
1.18091
1.18088
1.18085
1.18082
1.18079
1.18075
1.18072
1.18068
1.18064
1.1806
1.18056
1.18051
1.18047
1.18042
1.18037
1.18032
1.18027
0.189991
0.284702
0.329896
0.349706
0.356608
0.35398
0.352066
0.353611
0.364798
0.387726
0.423839
0.468901
0.526708
0.592816
0.670015
0.759582
0.860727
0.97719
1.09146
1.1564
1.17591
1.18013
1.18096
1.1811
1.18111
1.1811
1.18108
1.18106
1.18104
1.18101
1.18099
1.18097
1.18094
1.18091
1.18088
1.18085
1.18082
1.18079
1.18075
1.18072
1.18068
1.18064
1.1806
1.18056
1.18051
1.18047
1.18042
1.18037
1.18032
1.18027
0.190352
0.285773
0.326151
0.341048
0.347528
0.34923
0.352152
0.359065
0.373649
0.399828
0.435664
0.482139
0.540229
0.605182
0.683377
0.772852
0.872903
0.990553
1.10094
1.15979
1.17666
1.18028
1.18099
1.1811
1.18111
1.1811
1.18108
1.18106
1.18104
1.18101
1.18099
1.18097
1.18094
1.18091
1.18088
1.18085
1.18082
1.18079
1.18075
1.18072
1.18068
1.18064
1.1806
1.18056
1.18051
1.18047
1.18042
1.18037
1.18032
1.18027
0.228675
0.331114
0.348056
0.34937
0.350752
0.352921
0.358343
0.367894
0.386105
0.41407
0.449775
0.497078
0.554133
0.619188
0.697814
0.78718
0.88607
1.00494
1.11058
1.16299
1.17735
1.18041
1.18101
1.18111
1.18111
1.1811
1.18108
1.18106
1.18104
1.18101
1.18099
1.18097
1.18094
1.18091
1.18088
1.18085
1.18082
1.18079
1.18075
1.18072
1.18068
1.18064
1.1806
1.18056
1.18051
1.18047
1.18042
1.18037
1.18032
1.18027
0.790375
0.455024
0.39232
0.371326
0.364994
0.364971
0.369986
0.38202
0.402006
0.429427
0.466348
0.513962
0.569697
0.635285
0.713582
0.80281
0.901186
1.02046
1.12027
1.16599
1.17798
1.18054
1.18103
1.18111
1.18111
1.1811
1.18108
1.18106
1.18104
1.18101
1.18099
1.18097
1.18094
1.18091
1.18088
1.18085
1.18082
1.18079
1.18075
1.18072
1.18068
1.18064
1.1806
1.18056
1.18051
1.18047
1.18042
1.18037
1.18032
1.18027
1.03932
0.577885
0.449973
0.407646
0.390338
0.386149
0.390235
0.402379
0.421718
0.44913
0.486748
0.534098
0.588396
0.654402
0.731957
0.821016
0.920994
1.03823
1.1304
1.16889
1.17859
1.18065
1.18105
1.18112
1.18111
1.1811
1.18108
1.18106
1.18104
1.18101
1.18099
1.18097
1.18094
1.18091
1.18088
1.18085
1.18082
1.18079
1.18075
1.18072
1.18068
1.18064
1.1806
1.18056
1.18051
1.18047
1.18042
1.18037
1.18032
1.18027
1.09922
0.675746
0.515038
0.453685
0.427241
0.417866
0.419092
0.428427
0.447261
0.475255
0.512699
0.557573
0.612091
0.678585
0.754671
0.843347
0.945486
1.05935
1.14112
1.17174
1.17918
1.18077
1.18108
1.18112
1.18111
1.1811
1.18108
1.18106
1.18104
1.18101
1.18099
1.18097
1.18094
1.18091
1.18088
1.18085
1.18082
1.18079
1.18075
1.18072
1.18068
1.18064
1.1806
1.18056
1.18051
1.18047
1.18042
1.18037
1.18032
1.18027
1.12207
0.759816
0.586596
0.511653
0.474747
0.458889
0.456863
0.464273
0.482204
0.509392
0.544474
0.587956
0.643196
0.708811
0.784802
0.871143
0.976153
1.08404
1.15192
1.17442
1.17974
1.18088
1.1811
1.18112
1.18111
1.1811
1.18108
1.18106
1.18104
1.18101
1.18099
1.18097
1.18094
1.18091
1.18088
1.18085
1.18082
1.18079
1.18075
1.18072
1.18068
1.18064
1.1806
1.18056
1.18051
1.18047
1.18042
1.18037
1.18032
1.18027
1.13688
0.835858
0.663222
0.580476
0.536933
0.514764
0.507935
0.5125
0.527215
0.551064
0.584232
0.628507
0.682717
0.746166
0.822187
0.907957
1.01425
1.11125
1.16188
1.17676
1.18023
1.18098
1.18111
1.18112
1.18111
1.1811
1.18108
1.18106
1.18104
1.18101
1.18099
1.18096
1.18094
1.18091
1.18088
1.18085
1.18082
1.18079
1.18075
1.18072
1.18068
1.18064
1.1806
1.18056
1.18051
1.18047
1.18042
1.18037
1.18032
1.18027
1.14882
0.90633
0.744181
0.658305
0.608337
0.581207
0.569796
0.570748
0.581775
0.604424
0.637351
0.679922
0.731967
0.79537
0.868345
0.959059
1.05981
1.13777
1.16998
1.17861
1.18063
1.18105
1.18113
1.18113
1.18111
1.1811
1.18108
1.18106
1.18104
1.18101
1.18099
1.18096
1.18094
1.18091
1.18088
1.18085
1.18082
1.18079
1.18075
1.18072
1.18068
1.18064
1.1806
1.18056
1.18051
1.18047
1.18042
1.18037
1.18032
1.18027
1.15897
0.984795
0.834961
0.747729
0.694732
0.662299
0.646922
0.64482
0.653075
0.673351
0.703678
0.743154
0.794619
0.855396
0.93055
1.02146
1.1085
1.15895
1.17561
1.1799
1.1809
1.18111
1.18114
1.18113
1.18111
1.1811
1.18108
1.18106
1.18104
1.18101
1.18099
1.18096
1.18094
1.18091
1.18088
1.18085
1.18082
1.18079
1.18075
1.18072
1.18068
1.18064
1.1806
1.18056
1.18051
1.18047
1.18042
1.18037
1.18032
1.18027
1.16726
1.05672
0.927095
0.84635
0.793135
0.758212
0.7395
0.734179
0.739489
0.756321
0.784598
0.822758
0.870402
0.933636
1.01084
1.09108
1.14852
1.17201
1.17888
1.18065
1.18106
1.18114
1.18114
1.18113
1.18111
1.1811
1.18108
1.18106
1.18104
1.18101
1.18099
1.18096
1.18094
1.18091
1.18088
1.18085
1.18082
1.18079
1.18075
1.18072
1.18068
1.18064
1.1806
1.18056
1.18051
1.18047
1.18042
1.18037
1.18032
1.18027
1.17373
1.11952
1.02672
0.952759
0.898174
0.865005
0.845784
0.83861
0.842023
0.855913
0.880623
0.919514
0.971363
1.03316
1.0982
1.14737
1.17043
1.17818
1.18043
1.18101
1.18114
1.18115
1.18114
1.18113
1.18111
1.1811
1.18108
1.18106
1.18104
1.18101
1.18099
1.18096
1.18094
1.18091
1.18088
1.18085
1.18082
1.18079
1.18075
1.18072
1.18068
1.18064
1.1806
1.18056
1.18051
1.18047
1.18042
1.18037
1.18032
1.18027
1.17803
1.16088
1.11873
1.06768
1.02412
0.991775
0.97164
0.963837
0.967112
0.9815
1.00787
1.04399
1.08667
1.12821
1.15785
1.17273
1.17851
1.18044
1.181
1.18114
1.18116
1.18116
1.18114
1.18113
1.18111
1.1811
1.18108
1.18106
1.18104
1.18101
1.18099
1.18096
1.18094
1.18091
1.18088
1.18085
1.18082
1.18079
1.18075
1.18072
1.18068
1.18064
1.1806
1.18056
1.18051
1.18047
1.18042
1.18037
1.18032
1.18027
1.18009
1.17576
1.16656
1.15182
1.13263
1.11459
1.10243
1.09827
1.10095
1.11081
1.12668
1.14442
1.1601
1.17093
1.1769
1.17964
1.18071
1.18106
1.18116
1.18118
1.18117
1.18116
1.18114
1.18113
1.18111
1.18109
1.18108
1.18106
1.18104
1.18101
1.18099
1.18096
1.18094
1.18091
1.18088
1.18085
1.18082
1.18079
1.18075
1.18072
1.18068
1.18064
1.1806
1.18056
1.18051
1.18047
1.18042
1.18037
1.18032
1.18027
1.18092
1.17987
1.17828
1.17603
1.17311
1.16996
1.16744
1.16669
1.16765
1.17
1.17301
1.17593
1.17823
1.17975
1.18062
1.181
1.18114
1.18119
1.18119
1.18118
1.18117
1.18116
1.18114
1.18113
1.18111
1.18109
1.18108
1.18106
1.18104
1.18101
1.18099
1.18096
1.18094
1.18091
1.18088
1.18085
1.18082
1.18079
1.18075
1.18072
1.18068
1.18064
1.1806
1.18056
1.18051
1.18047
1.18042
1.18037
1.18032
1.18027
1.1812
1.18099
1.18073
1.18045
1.18016
1.17989
1.1797
1.17968
1.17982
1.1801
1.18042
1.18071
1.18094
1.18109
1.18117
1.1812
1.18121
1.1812
1.18119
1.18118
1.18117
1.18116
1.18114
1.18113
1.18111
1.18109
1.18108
1.18106
1.18104
1.18101
1.18099
1.18096
1.18094
1.18091
1.18088
1.18085
1.18082
1.18079
1.18075
1.18072
1.18068
1.18064
1.1806
1.18056
1.18051
1.18047
1.18042
1.18037
1.18032
1.18027
1.18127
1.18124
1.18121
1.18118
1.18116
1.18115
1.18114
1.18115
1.18116
1.18118
1.1812
1.18121
1.18122
1.18123
1.18123
1.18122
1.18121
1.1812
1.18119
1.18118
1.18117
1.18116
1.18114
1.18113
1.18111
1.18109
1.18108
1.18106
1.18104
1.18101
1.18099
1.18096
1.18094
1.18091
1.18088
1.18085
1.18082
1.18079
1.18075
1.18071
1.18068
1.18064
1.1806
1.18056
1.18051
1.18047
1.18042
1.18037
1.18032
1.18027
1.18128
1.18128
1.18127
1.18127
1.18127
1.18127
1.18127
1.18126
1.18126
1.18126
1.18125
1.18125
1.18124
1.18124
1.18123
1.18122
1.18121
1.18121
1.18119
1.18118
1.18117
1.18116
1.18114
1.18113
1.18111
1.18109
1.18108
1.18106
1.18104
1.18101
1.18099
1.18096
1.18094
1.18091
1.18088
1.18085
1.18082
1.18079
1.18075
1.18072
1.18068
1.18064
1.1806
1.18056
1.18051
1.18047
1.18042
1.18037
1.18032
1.18027
)
;

boundaryField
{
    AXIS
    {
        type            empty;
    }
    OUTLET
    {
        type            calculated;
        value           uniform 1.18025;
    }
    COFLOW
    {
        type            calculated;
        value           nonuniform List<scalar> 
15
(
1.18126
1.18128
1.18128
1.18128
1.18128
1.18128
1.18127
1.18127
1.18127
1.18127
1.18128
1.18128
1.18128
1.18128
1.18128
)
;
    }
    PILOT
    {
        type            calculated;
        value           nonuniform List<scalar> 5(0.156901 0.156903 0.156919 0.156923 0.156927);
    }
    FUEL
    {
        type            calculated;
        value           nonuniform List<scalar> 5(1.05184 1.0518 1.05192 1.05232 1.0525);
    }
    WALL
    {
        type            calculated;
        value           nonuniform List<scalar> 
50
(
1.18128
1.18128
1.18127
1.18127
1.18127
1.18127
1.18127
1.18126
1.18126
1.18126
1.18125
1.18125
1.18124
1.18124
1.18123
1.18122
1.18121
1.18121
1.18119
1.18118
1.18117
1.18116
1.18114
1.18113
1.18111
1.18109
1.18108
1.18106
1.18104
1.18101
1.18099
1.18096
1.18094
1.18091
1.18088
1.18085
1.18082
1.18079
1.18075
1.18072
1.18068
1.18064
1.1806
1.18056
1.18051
1.18047
1.18042
1.18037
1.18032
1.18027
)
;
    }
    front
    {
        type            wedge;
    }
    back
    {
        type            wedge;
    }
}


// ************************************************************************* //
