/*--------------------------------*- C++ -*----------------------------------*\
| =========                 |                                                 |
| \\      /  F ield         | OpenFOAM: The Open Source CFD Toolbox           |
|  \\    /   O peration     | Version:  2.4.x                                 |
|   \\  /    A nd           | Web:      www.OpenFOAM.org                      |
|    \\/     M anipulation  |                                                 |
\*---------------------------------------------------------------------------*/
FoamFile
{
    version     2.0;
    format      ascii;
    class       volScalarField;
    location    "0.01";
    object      T;
}
// * * * * * * * * * * * * * * * * * * * * * * * * * * * * * * * * * * * * * //

dimensions      [0 0 0 1 0 0 0];

internalField   nonuniform List<scalar> 
1250
(
308.506
346.909
389.48
433.671
478.487
533.084
646.062
840.415
945.303
926.383
882.875
799.232
712.581
625.858
551.214
483.038
423.61
372.959
329.247
304.404
296.247
294.436
294.079
294.013
294.002
294
294
294
294
294
294
294
294
294
294
294
294
294
294
294
294
294
294
294
294
294
294
294
294
294
310.918
353.593
397.932
443.501
487.778
544.925
663.196
850.102
943.992
926.107
880.702
796.915
710.711
624.381
550.14
482.201
422.984
372.445
328.923
304.278
296.217
294.43
294.078
294.013
294.002
294
294
294
294
294
294
294
294
294
294
294
294
294
294
294
294
294
294
294
294
294
294
294
294
294
318.263
372.254
420.331
467.144
508.475
573.445
700.165
869.898
939.361
926.415
875.71
792.036
706.35
621.047
547.594
480.2
421.468
371.175
328.104
303.949
296.14
294.415
294.075
294.012
294.002
294
294
294
294
294
294
294
294
294
294
294
294
294
294
294
294
294
294
294
294
294
294
294
294
294
340.238
414.498
465.417
506.829
555.621
623.654
751.396
894.282
935.951
923.165
867.138
784.406
699.349
616.025
543.607
477.052
419.063
369.144
326.797
303.433
296.018
294.392
294.071
294.012
294.002
294
294
294
294
294
294
294
294
294
294
294
294
294
294
294
294
294
294
294
294
294
294
294
294
294
426.225
515.706
546.382
584.868
627.037
699.126
810.029
916.042
934.447
915.635
855.162
774.314
690.079
609.342
538.303
472.848
415.837
366.409
325.058
302.764
295.864
294.362
294.066
294.011
294.002
294
294
294
294
294
294
294
294
294
294
294
294
294
294
294
294
294
294
294
294
294
294
294
294
294
909.577
725.555
691.811
700.711
727.57
784.254
867.988
926.32
933.805
905.493
840.011
761.402
678.879
600.906
531.558
467.706
411.875
363.04
322.951
301.982
295.687
294.328
294.059
294.01
294.001
294
294
294
294
294
294
294
294
294
294
294
294
294
294
294
294
294
294
294
294
294
294
294
294
294
1433.64
983.525
864.593
828.122
827.858
862.338
911.53
933.434
928.297
889.819
821.831
745.846
665.628
591.107
523.629
461.758
407.275
359.118
320.552
301.129
295.497
294.291
294.053
294.009
294.001
294
294
294
294
294
294
294
294
294
294
294
294
294
294
294
294
294
294
294
294
294
294
294
294
294
1719.08
1136.88
978.341
922.518
906.545
918.007
930.831
935.967
916.252
869.793
801.454
728.293
651.094
580.279
514.693
454.926
402.147
354.736
317.946
300.246
295.304
294.254
294.046
294.008
294.001
294
294
294
294
294
294
294
294
294
294
294
294
294
294
294
294
294
294
294
294
294
294
294
294
294
1734.54
1154.13
1006.27
959.587
941.983
940.358
938.454
927.552
898.671
846.001
781.121
709.141
635.303
568.701
504.808
447.23
396.607
350.001
315.233
299.377
295.118
294.218
294.039
294.006
294.001
294
294
294
294
294
294
294
294
294
294
294
294
294
294
294
294
294
294
294
294
294
294
294
294
294
1465.2
1013.89
956.888
948.731
943.757
939.459
929.254
910.673
873.284
819.229
757.936
688.648
619.806
556.122
494.544
439.207
390.786
345.043
312.522
298.558
294.947
294.185
294.033
294.005
294.001
294
294
294
294
294
294
294
294
294
294
294
294
294
294
294
294
294
294
294
294
294
294
294
294
294
437.531
748.642
859.281
902.474
915.789
916.261
906.38
881.669
841.993
791.953
732.259
666.819
603.313
542.319
483.799
430.776
384.31
339.847
309.843
297.798
294.789
294.154
294.028
294.004
294.001
294
294
294
294
294
294
294
294
294
294
294
294
294
294
294
294
294
294
294
294
294
294
294
294
294
333.707
593.889
755.693
829.512
863.769
872.765
864.874
841.279
805.567
759.099
702.822
642.478
584.608
526.779
471.849
421.353
376.14
334.091
307.091
297.065
294.639
294.125
294.022
294.004
294.001
294
294
294
294
294
294
294
294
294
294
294
294
294
294
294
294
294
294
294
294
294
294
294
294
294
315.705
509.795
664.278
750.524
794.815
811.929
810.013
793.733
762.149
719.204
668.497
616.16
562.482
508.343
457.865
410.342
366.506
327.495
304.234
296.349
294.492
294.096
294.017
294.003
294
294
294
294
294
294
294
294
294
294
294
294
294
294
294
294
294
294
294
294
294
294
294
294
294
294
309.348
454.48
585.716
669.063
719.333
743.362
746.687
735.443
709.251
672.728
630.621
585.09
535.812
487.028
440.539
397.412
355.115
320.104
301.407
295.679
294.354
294.069
294.012
294.002
294
294
294
294
294
294
294
294
294
294
294
294
294
294
294
294
294
294
294
294
294
294
294
294
294
294
305.368
413.831
519.594
592.039
638.883
665.677
674.451
668.725
650.681
623.295
588.757
548.109
505.343
463.022
420.776
381.487
341.913
312.339
298.844
295.096
294.232
294.045
294.008
294.001
294
294
294
294
294
294
294
294
294
294
294
294
294
294
294
294
294
294
294
294
294
294
294
294
294
294
302.226
382.117
464.124
523.587
565.741
591.602
603.225
602.29
591.181
569.515
540.662
507.398
471.878
434.779
398.686
361.382
327.356
305.122
296.793
294.636
294.135
294.026
294.005
294.001
294
294
294
294
294
294
294
294
294
294
294
294
294
294
294
294
294
294
294
294
294
294
294
294
294
294
299.606
352.028
414.391
462.027
496.707
520.621
532.786
534.505
527.886
512.274
490.558
464.892
435.193
404.654
372.336
339.527
313.109
299.595
295.386
294.318
294.067
294.013
294.002
294
294
294
294
294
294
294
294
294
294
294
294
294
294
294
294
294
294
294
294
294
294
294
294
294
294
294
297.499
328.315
373.708
408.919
435.988
455.786
467.153
470.493
467.169
456.926
440.686
420.51
397.767
371.123
343.063
318.065
302.295
296.286
294.573
294.132
294.027
294.005
294.001
294
294
294
294
294
294
294
294
294
294
294
294
294
294
294
294
294
294
294
294
294
294
294
294
294
294
294
295.873
310.069
337.821
363.765
385.619
400.229
409.213
412.671
411.019
404.43
393.213
376.766
356.864
335.727
316.025
302.598
296.685
294.749
294.189
294.043
294.009
294.002
294
294
294
294
294
294
294
294
294
294
294
294
294
294
294
294
294
294
294
294
294
294
294
294
294
294
294
294
294.802
299.119
310.288
324.982
338.669
349.601
356.77
359.627
358.421
353.22
344.069
332.281
319.349
307.694
299.884
296.111
294.669
294.189
294.048
294.011
294.002
294
294
294
294
294
294
294
294
294
294
294
294
294
294
294
294
294
294
294
294
294
294
294
294
294
294
294
294
294
294.293
295.366
297.677
301.452
306.514
311.43
314.834
316.014
315.249
312.477
308.113
303.377
299.31
296.567
295.072
294.392
294.126
294.035
294.009
294.002
294
294
294
294
294
294
294
294
294
294
294
294
294
294
294
294
294
294
294
294
294
294
294
294
294
294
294
294
294
294
294.089
294.346
294.74
295.299
296.028
296.817
297.453
297.641
297.397
296.805
296.048
295.318
294.745
294.367
294.151
294.054
294.017
294.005
294.001
294
294
294
294
294
294
294
294
294
294
294
294
294
294
294
294
294
294
294
294
294
294
294
294
294
294
294
294
294
294
294
294.02
294.072
294.134
294.203
294.275
294.341
294.388
294.392
294.355
294.287
294.207
294.133
294.075
294.038
294.016
294.006
294.002
294
294
294
294
294
294
294
294
294
294
294
294
294
294
294
294
294
294
294
294
294
294
294
294
294
294
294
294
294
294
294
294
294
294.002
294.01
294.017
294.024
294.028
294.031
294.031
294.03
294.026
294.02
294.014
294.009
294.005
294.002
294.001
294
294
294
294
294
294
294
294
294
294
294
294
294
294
294
294
294
294
294
294
294
294
294
294
294
294
294
294
294
294
294
294
294
294
294
294
294.001
294.001
294.001
294.001
294.001
294.001
294.001
294.001
294.001
294
294
294
294
294
294
294
294
294
294
294
294
294
294
294
294
294
294
294
294
294
294
294
294
294
294
294
294
294
294
294
294
294
294
294
294
294
294
294
294
)
;

boundaryField
{
    AXIS
    {
        type            empty;
    }
    OUTLET
    {
        type            calculated;
        value           uniform 294;
    }
    COFLOW
    {
        type            calculated;
        value           uniform 294;
    }
    PILOT
    {
        type            calculated;
        value           uniform 2102.68;
    }
    FUEL
    {
        type            calculated;
        value           uniform 294;
    }
    WALL
    {
        type            calculated;
        value           nonuniform List<scalar> 
50
(
294
294.001
294.001
294.001
294.001
294.001
294.001
294.001
294.001
294.001
294
294
294
294
294
294
294
294
294
294
294
294
294
294
294
294
294
294
294
294
294
294
294
294
294
294
294
294
294
294
294
294
294
294
294
294
294
294
294
294
)
;
    }
    front
    {
        type            wedge;
    }
    back
    {
        type            wedge;
    }
}


// ************************************************************************* //
