/*--------------------------------*- C++ -*----------------------------------*\
| =========                 |                                                 |
| \\      /  F ield         | OpenFOAM: The Open Source CFD Toolbox           |
|  \\    /   O peration     | Version:  2.4.x                                 |
|   \\  /    A nd           | Web:      www.OpenFOAM.org                      |
|    \\/     M anipulation  |                                                 |
\*---------------------------------------------------------------------------*/
FoamFile
{
    version     2.0;
    format      ascii;
    class       volScalarField;
    location    "0.01";
    object      thermo:psi;
}
// * * * * * * * * * * * * * * * * * * * * * * * * * * * * * * * * * * * * * //

dimensions      [0 -2 2 0 0 0 0];

internalField   nonuniform List<scalar> 
1250
(
1.00004e-05
8.89034e-06
7.92017e-06
7.11963e-06
6.46756e-06
5.83507e-06
4.86141e-06
3.79986e-06
3.44807e-06
3.58157e-06
3.80769e-06
4.24596e-06
4.79195e-06
5.48077e-06
6.24231e-06
7.14094e-06
8.15883e-06
9.28167e-06
1.05279e-05
1.13956e-05
1.17122e-05
1.17849e-05
1.17993e-05
1.1802e-05
1.18024e-05
1.18025e-05
1.18025e-05
1.18025e-05
1.18025e-05
1.18025e-05
1.18025e-05
1.18025e-05
1.18025e-05
1.18025e-05
1.18025e-05
1.18025e-05
1.18025e-05
1.18025e-05
1.18025e-05
1.18025e-05
1.18025e-05
1.18025e-05
1.18025e-05
1.18025e-05
1.18025e-05
1.18025e-05
1.18025e-05
1.18025e-05
1.18025e-05
1.18025e-05
9.92238e-06
8.72151e-06
7.75215e-06
6.96344e-06
6.3485e-06
5.71336e-06
4.74176e-06
3.76173e-06
3.45651e-06
3.58475e-06
3.81847e-06
4.25921e-06
4.80513e-06
5.49414e-06
6.25477e-06
7.15355e-06
8.17106e-06
9.29463e-06
1.05384e-05
1.14003e-05
1.17134e-05
1.17851e-05
1.17993e-05
1.1802e-05
1.18024e-05
1.18025e-05
1.18025e-05
1.18025e-05
1.18025e-05
1.18025e-05
1.18025e-05
1.18025e-05
1.18025e-05
1.18025e-05
1.18025e-05
1.18025e-05
1.18025e-05
1.18025e-05
1.18025e-05
1.18025e-05
1.18025e-05
1.18025e-05
1.18025e-05
1.18025e-05
1.18025e-05
1.18025e-05
1.18025e-05
1.18025e-05
1.18025e-05
1.18025e-05
9.69176e-06
8.28243e-06
7.34023e-06
6.61656e-06
6.10196e-06
5.44149e-06
4.50471e-06
3.68745e-06
3.48165e-06
3.58822e-06
3.84335e-06
4.28739e-06
4.8361e-06
5.52451e-06
6.2845e-06
7.18385e-06
8.20086e-06
9.3268e-06
1.0565e-05
1.14128e-05
1.17165e-05
1.17857e-05
1.17994e-05
1.1802e-05
1.18024e-05
1.18025e-05
1.18025e-05
1.18025e-05
1.18025e-05
1.18025e-05
1.18025e-05
1.18025e-05
1.18025e-05
1.18025e-05
1.18025e-05
1.18025e-05
1.18025e-05
1.18025e-05
1.18025e-05
1.18025e-05
1.18025e-05
1.18025e-05
1.18025e-05
1.18025e-05
1.18025e-05
1.18025e-05
1.18025e-05
1.18025e-05
1.18025e-05
1.18025e-05
9.06082e-06
7.43601e-06
6.63522e-06
6.11495e-06
5.59986e-06
5.02377e-06
4.21788e-06
3.60332e-06
3.50585e-06
3.6079e-06
3.88604e-06
4.332e-06
4.88653e-06
5.57081e-06
6.3316e-06
7.23206e-06
8.24857e-06
9.37871e-06
1.06076e-05
1.14324e-05
1.17213e-05
1.17866e-05
1.17996e-05
1.1802e-05
1.18024e-05
1.18025e-05
1.18025e-05
1.18025e-05
1.18025e-05
1.18025e-05
1.18025e-05
1.18025e-05
1.18025e-05
1.18025e-05
1.18025e-05
1.18025e-05
1.18025e-05
1.18025e-05
1.18025e-05
1.18025e-05
1.18025e-05
1.18025e-05
1.18025e-05
1.18025e-05
1.18025e-05
1.18025e-05
1.18025e-05
1.18025e-05
1.18025e-05
1.18025e-05
7.21885e-06
5.98169e-06
5.67526e-06
5.32257e-06
4.98905e-06
4.50859e-06
3.9387e-06
3.53811e-06
3.52548e-06
3.64667e-06
3.9465e-06
4.39223e-06
4.95483e-06
5.63361e-06
6.39536e-06
7.29742e-06
8.31343e-06
9.44952e-06
1.06649e-05
1.14578e-05
1.17275e-05
1.17878e-05
1.17998e-05
1.1802e-05
1.18024e-05
1.18025e-05
1.18025e-05
1.18025e-05
1.18025e-05
1.18025e-05
1.18025e-05
1.18025e-05
1.18025e-05
1.18025e-05
1.18025e-05
1.18025e-05
1.18025e-05
1.18025e-05
1.18025e-05
1.18025e-05
1.18025e-05
1.18025e-05
1.18025e-05
1.18025e-05
1.18025e-05
1.18025e-05
1.18025e-05
1.18025e-05
1.18025e-05
1.18025e-05
3.40961e-06
4.29533e-06
4.52081e-06
4.47941e-06
4.33509e-06
4.05364e-06
3.70539e-06
3.52208e-06
3.54338e-06
3.69853e-06
4.02479e-06
4.47119e-06
5.03978e-06
5.71481e-06
6.47816e-06
7.37896e-06
8.39448e-06
9.53819e-06
1.07352e-05
1.14878e-05
1.17346e-05
1.17892e-05
1.18001e-05
1.18021e-05
1.18024e-05
1.18025e-05
1.18025e-05
1.18025e-05
1.18025e-05
1.18025e-05
1.18025e-05
1.18025e-05
1.18025e-05
1.18025e-05
1.18025e-05
1.18025e-05
1.18025e-05
1.18025e-05
1.18025e-05
1.18025e-05
1.18025e-05
1.18025e-05
1.18025e-05
1.18025e-05
1.18025e-05
1.18025e-05
1.18025e-05
1.18025e-05
1.18025e-05
1.18025e-05
2.22618e-06
3.22388e-06
3.66775e-06
3.8366e-06
3.8526e-06
3.72451e-06
3.55981e-06
3.51912e-06
3.58083e-06
3.77512e-06
4.12171e-06
4.56945e-06
5.1438e-06
5.81201e-06
6.57819e-06
7.47553e-06
8.49055e-06
9.64352e-06
1.08163e-05
1.15206e-05
1.17422e-05
1.17907e-05
1.18004e-05
1.18021e-05
1.18024e-05
1.18025e-05
1.18025e-05
1.18025e-05
1.18025e-05
1.18025e-05
1.18025e-05
1.18025e-05
1.18025e-05
1.18025e-05
1.18025e-05
1.18025e-05
1.18025e-05
1.18025e-05
1.18025e-05
1.18025e-05
1.18025e-05
1.18025e-05
1.18025e-05
1.18025e-05
1.18025e-05
1.18025e-05
1.18025e-05
1.18025e-05
1.18025e-05
1.18025e-05
1.89848e-06
2.84468e-06
3.2962e-06
3.49405e-06
3.56296e-06
3.53666e-06
3.51754e-06
3.53299e-06
3.64479e-06
3.87391e-06
4.23476e-06
4.68503e-06
5.26265e-06
5.92321e-06
6.69459e-06
7.58956e-06
8.60024e-06
9.76397e-06
1.09058e-05
1.15548e-05
1.17499e-05
1.17922e-05
1.18006e-05
1.18022e-05
1.18024e-05
1.18025e-05
1.18025e-05
1.18025e-05
1.18025e-05
1.18025e-05
1.18025e-05
1.18025e-05
1.18025e-05
1.18025e-05
1.18025e-05
1.18025e-05
1.18025e-05
1.18025e-05
1.18025e-05
1.18025e-05
1.18025e-05
1.18025e-05
1.18025e-05
1.18025e-05
1.18025e-05
1.18025e-05
1.18025e-05
1.18025e-05
1.18025e-05
1.18025e-05
1.90204e-06
2.85538e-06
3.25879e-06
3.40759e-06
3.47229e-06
3.48926e-06
3.51845e-06
3.58751e-06
3.73324e-06
3.99484e-06
4.35292e-06
4.81731e-06
5.39774e-06
6.04676e-06
6.8281e-06
7.72215e-06
8.7219e-06
9.89749e-06
1.10006e-05
1.15887e-05
1.17574e-05
1.17937e-05
1.18009e-05
1.18022e-05
1.18024e-05
1.18025e-05
1.18025e-05
1.18025e-05
1.18025e-05
1.18025e-05
1.18025e-05
1.18025e-05
1.18025e-05
1.18025e-05
1.18025e-05
1.18025e-05
1.18025e-05
1.18025e-05
1.18025e-05
1.18025e-05
1.18025e-05
1.18025e-05
1.18025e-05
1.18025e-05
1.18025e-05
1.18025e-05
1.18025e-05
1.18025e-05
1.18025e-05
1.18025e-05
2.28491e-06
3.30839e-06
3.47766e-06
3.49075e-06
3.50452e-06
3.52616e-06
3.58033e-06
3.67575e-06
3.85772e-06
4.13715e-06
4.49392e-06
4.96657e-06
5.53667e-06
6.18671e-06
6.97236e-06
7.86531e-06
8.85346e-06
1.00412e-05
1.10969e-05
1.16207e-05
1.17643e-05
1.1795e-05
1.18011e-05
1.18023e-05
1.18025e-05
1.18025e-05
1.18025e-05
1.18025e-05
1.18025e-05
1.18025e-05
1.18025e-05
1.18025e-05
1.18025e-05
1.18025e-05
1.18025e-05
1.18025e-05
1.18025e-05
1.18025e-05
1.18025e-05
1.18025e-05
1.18025e-05
1.18025e-05
1.18025e-05
1.18025e-05
1.18025e-05
1.18025e-05
1.18025e-05
1.18025e-05
1.18025e-05
1.18025e-05
7.89697e-06
4.5464e-06
3.9199e-06
3.71011e-06
3.64683e-06
3.64657e-06
3.69667e-06
3.81691e-06
4.0166e-06
4.2906e-06
4.65952e-06
5.13528e-06
5.69219e-06
6.34755e-06
7.12991e-06
8.02149e-06
9.00449e-06
1.01964e-05
1.11937e-05
1.16506e-05
1.17706e-05
1.17962e-05
1.18014e-05
1.18023e-05
1.18025e-05
1.18025e-05
1.18025e-05
1.18025e-05
1.18025e-05
1.18025e-05
1.18025e-05
1.18025e-05
1.18025e-05
1.18025e-05
1.18025e-05
1.18025e-05
1.18025e-05
1.18025e-05
1.18025e-05
1.18025e-05
1.18025e-05
1.18025e-05
1.18025e-05
1.18025e-05
1.18025e-05
1.18025e-05
1.18025e-05
1.18025e-05
1.18025e-05
1.18025e-05
1.03841e-05
5.77395e-06
4.49591e-06
4.073e-06
3.90005e-06
3.85818e-06
3.89901e-06
4.02033e-06
4.21357e-06
4.48747e-06
4.86335e-06
5.33647e-06
5.87903e-06
6.53856e-06
7.31351e-06
8.20339e-06
9.20241e-06
1.03738e-05
1.1295e-05
1.16796e-05
1.17767e-05
1.17974e-05
1.18016e-05
1.18023e-05
1.18025e-05
1.18025e-05
1.18025e-05
1.18025e-05
1.18025e-05
1.18025e-05
1.18025e-05
1.18025e-05
1.18025e-05
1.18025e-05
1.18025e-05
1.18025e-05
1.18025e-05
1.18025e-05
1.18025e-05
1.18025e-05
1.18025e-05
1.18025e-05
1.18025e-05
1.18025e-05
1.18025e-05
1.18025e-05
1.18025e-05
1.18025e-05
1.18025e-05
1.18025e-05
1.09826e-05
6.7517e-06
5.14598e-06
4.53298e-06
4.26877e-06
4.17509e-06
4.18734e-06
4.2806e-06
4.46879e-06
4.7485e-06
5.12265e-06
5.57103e-06
6.11578e-06
6.78019e-06
7.54045e-06
8.42653e-06
9.44712e-06
1.05849e-05
1.1402e-05
1.17081e-05
1.17826e-05
1.17986e-05
1.18018e-05
1.18024e-05
1.18025e-05
1.18025e-05
1.18025e-05
1.18025e-05
1.18025e-05
1.18025e-05
1.18025e-05
1.18025e-05
1.18025e-05
1.18025e-05
1.18025e-05
1.18025e-05
1.18025e-05
1.18025e-05
1.18025e-05
1.18025e-05
1.18025e-05
1.18025e-05
1.18025e-05
1.18025e-05
1.18025e-05
1.18025e-05
1.18025e-05
1.18025e-05
1.18025e-05
1.18025e-05
1.1211e-05
7.59165e-06
5.86092e-06
5.11216e-06
4.74341e-06
4.58497e-06
4.56473e-06
4.63877e-06
4.81793e-06
5.08959e-06
5.44014e-06
5.87461e-06
6.42657e-06
7.0822e-06
7.84151e-06
8.70425e-06
9.75355e-06
1.08316e-05
1.15099e-05
1.17349e-05
1.17882e-05
1.17997e-05
1.1802e-05
1.18024e-05
1.18025e-05
1.18025e-05
1.18025e-05
1.18025e-05
1.18025e-05
1.18025e-05
1.18025e-05
1.18025e-05
1.18025e-05
1.18025e-05
1.18025e-05
1.18025e-05
1.18025e-05
1.18025e-05
1.18025e-05
1.18025e-05
1.18025e-05
1.18025e-05
1.18025e-05
1.18025e-05
1.18025e-05
1.18025e-05
1.18025e-05
1.18025e-05
1.18025e-05
1.18025e-05
1.13589e-05
8.3514e-06
6.62651e-06
5.79979e-06
5.36473e-06
5.14324e-06
5.07501e-06
5.12063e-06
5.26766e-06
5.50596e-06
5.83738e-06
6.27978e-06
6.82145e-06
7.45545e-06
8.21505e-06
9.07209e-06
1.01342e-05
1.11035e-05
1.16095e-05
1.17583e-05
1.17931e-05
1.18007e-05
1.18022e-05
1.18024e-05
1.18025e-05
1.18025e-05
1.18025e-05
1.18025e-05
1.18025e-05
1.18025e-05
1.18025e-05
1.18025e-05
1.18025e-05
1.18025e-05
1.18025e-05
1.18025e-05
1.18025e-05
1.18025e-05
1.18025e-05
1.18025e-05
1.18025e-05
1.18025e-05
1.18025e-05
1.18025e-05
1.18025e-05
1.18025e-05
1.18025e-05
1.18025e-05
1.18025e-05
1.18025e-05
1.14783e-05
9.0555e-06
7.43539e-06
6.5774e-06
6.07816e-06
5.8071e-06
5.69309e-06
5.70261e-06
5.8128e-06
6.03911e-06
6.36813e-06
6.79349e-06
7.31354e-06
7.94707e-06
8.67625e-06
9.58268e-06
1.05895e-05
1.13685e-05
1.16904e-05
1.17768e-05
1.1797e-05
1.18014e-05
1.18023e-05
1.18025e-05
1.18025e-05
1.18025e-05
1.18025e-05
1.18025e-05
1.18025e-05
1.18025e-05
1.18025e-05
1.18025e-05
1.18025e-05
1.18025e-05
1.18025e-05
1.18025e-05
1.18025e-05
1.18025e-05
1.18025e-05
1.18025e-05
1.18025e-05
1.18025e-05
1.18025e-05
1.18025e-05
1.18025e-05
1.18025e-05
1.18025e-05
1.18025e-05
1.18025e-05
1.18025e-05
1.15797e-05
9.83945e-06
8.3424e-06
7.47086e-06
6.94135e-06
6.61731e-06
6.46368e-06
6.4427e-06
6.5252e-06
6.7278e-06
7.03084e-06
7.42529e-06
7.93953e-06
8.54683e-06
9.29777e-06
1.02062e-05
1.1076e-05
1.15801e-05
1.17466e-05
1.17896e-05
1.17998e-05
1.1802e-05
1.18024e-05
1.18025e-05
1.18025e-05
1.18025e-05
1.18025e-05
1.18025e-05
1.18025e-05
1.18025e-05
1.18025e-05
1.18025e-05
1.18025e-05
1.18025e-05
1.18025e-05
1.18025e-05
1.18025e-05
1.18025e-05
1.18025e-05
1.18025e-05
1.18025e-05
1.18025e-05
1.18025e-05
1.18025e-05
1.18025e-05
1.18025e-05
1.18025e-05
1.18025e-05
1.18025e-05
1.18025e-05
1.16624e-05
1.05581e-05
9.26294e-06
8.4562e-06
7.92452e-06
7.57561e-06
7.38867e-06
7.33551e-06
7.38859e-06
7.55679e-06
7.83934e-06
8.22065e-06
8.69673e-06
9.32857e-06
1.01e-05
1.09018e-05
1.14758e-05
1.17106e-05
1.17793e-05
1.17972e-05
1.18014e-05
1.18023e-05
1.18025e-05
1.18025e-05
1.18025e-05
1.18025e-05
1.18025e-05
1.18025e-05
1.18025e-05
1.18025e-05
1.18025e-05
1.18025e-05
1.18025e-05
1.18025e-05
1.18025e-05
1.18025e-05
1.18025e-05
1.18025e-05
1.18025e-05
1.18025e-05
1.18025e-05
1.18025e-05
1.18025e-05
1.18025e-05
1.18025e-05
1.18025e-05
1.18025e-05
1.18025e-05
1.18025e-05
1.18025e-05
1.17271e-05
1.11855e-05
1.02583e-05
9.51936e-06
8.97399e-06
8.64261e-06
8.45058e-06
8.37893e-06
8.41305e-06
8.55185e-06
8.79878e-06
9.18739e-06
9.70549e-06
1.0323e-05
1.09728e-05
1.14642e-05
1.16947e-05
1.17722e-05
1.17948e-05
1.18007e-05
1.18021e-05
1.18024e-05
1.18025e-05
1.18025e-05
1.18025e-05
1.18025e-05
1.18025e-05
1.18025e-05
1.18025e-05
1.18025e-05
1.18025e-05
1.18025e-05
1.18025e-05
1.18025e-05
1.18025e-05
1.18025e-05
1.18025e-05
1.18025e-05
1.18025e-05
1.18025e-05
1.18025e-05
1.18025e-05
1.18025e-05
1.18025e-05
1.18025e-05
1.18025e-05
1.18025e-05
1.18025e-05
1.18025e-05
1.18025e-05
1.17701e-05
1.15988e-05
1.11776e-05
1.06676e-05
1.02324e-05
9.90921e-06
9.70806e-06
9.63011e-06
9.66286e-06
9.80665e-06
1.00702e-05
1.0431e-05
1.08576e-05
1.12727e-05
1.15689e-05
1.17176e-05
1.17755e-05
1.17948e-05
1.18006e-05
1.18021e-05
1.18024e-05
1.18025e-05
1.18025e-05
1.18025e-05
1.18025e-05
1.18025e-05
1.18025e-05
1.18025e-05
1.18025e-05
1.18025e-05
1.18025e-05
1.18025e-05
1.18025e-05
1.18025e-05
1.18025e-05
1.18025e-05
1.18025e-05
1.18025e-05
1.18025e-05
1.18025e-05
1.18025e-05
1.18025e-05
1.18025e-05
1.18025e-05
1.18025e-05
1.18025e-05
1.18025e-05
1.18025e-05
1.18025e-05
1.18025e-05
1.17906e-05
1.17474e-05
1.16554e-05
1.15082e-05
1.13165e-05
1.11362e-05
1.10148e-05
1.09732e-05
1.10001e-05
1.10986e-05
1.12572e-05
1.14346e-05
1.15913e-05
1.16995e-05
1.17592e-05
1.17866e-05
1.17974e-05
1.18011e-05
1.18021e-05
1.18024e-05
1.18025e-05
1.18025e-05
1.18025e-05
1.18025e-05
1.18025e-05
1.18025e-05
1.18025e-05
1.18025e-05
1.18025e-05
1.18025e-05
1.18025e-05
1.18025e-05
1.18025e-05
1.18025e-05
1.18025e-05
1.18025e-05
1.18025e-05
1.18025e-05
1.18025e-05
1.18025e-05
1.18025e-05
1.18025e-05
1.18025e-05
1.18025e-05
1.18025e-05
1.18025e-05
1.18025e-05
1.18025e-05
1.18025e-05
1.18025e-05
1.17989e-05
1.17885e-05
1.17726e-05
1.17501e-05
1.17209e-05
1.16895e-05
1.16643e-05
1.16569e-05
1.16665e-05
1.169e-05
1.17201e-05
1.17493e-05
1.17724e-05
1.17877e-05
1.17964e-05
1.18003e-05
1.18018e-05
1.18023e-05
1.18024e-05
1.18025e-05
1.18025e-05
1.18025e-05
1.18025e-05
1.18025e-05
1.18025e-05
1.18025e-05
1.18025e-05
1.18025e-05
1.18025e-05
1.18025e-05
1.18025e-05
1.18025e-05
1.18025e-05
1.18025e-05
1.18025e-05
1.18025e-05
1.18025e-05
1.18025e-05
1.18025e-05
1.18025e-05
1.18025e-05
1.18025e-05
1.18025e-05
1.18025e-05
1.18025e-05
1.18025e-05
1.18025e-05
1.18025e-05
1.18025e-05
1.18025e-05
1.18017e-05
1.17996e-05
1.17971e-05
1.17943e-05
1.17914e-05
1.17887e-05
1.17868e-05
1.17866e-05
1.17881e-05
1.17909e-05
1.17941e-05
1.17971e-05
1.17994e-05
1.1801e-05
1.18018e-05
1.18022e-05
1.18024e-05
1.18025e-05
1.18025e-05
1.18025e-05
1.18025e-05
1.18025e-05
1.18025e-05
1.18025e-05
1.18025e-05
1.18025e-05
1.18025e-05
1.18025e-05
1.18025e-05
1.18025e-05
1.18025e-05
1.18025e-05
1.18025e-05
1.18025e-05
1.18025e-05
1.18025e-05
1.18025e-05
1.18025e-05
1.18025e-05
1.18025e-05
1.18025e-05
1.18025e-05
1.18025e-05
1.18025e-05
1.18025e-05
1.18025e-05
1.18025e-05
1.18025e-05
1.18025e-05
1.18025e-05
1.18024e-05
1.18021e-05
1.18018e-05
1.18015e-05
1.18014e-05
1.18012e-05
1.18012e-05
1.18013e-05
1.18014e-05
1.18017e-05
1.18019e-05
1.18021e-05
1.18023e-05
1.18024e-05
1.18024e-05
1.18025e-05
1.18025e-05
1.18025e-05
1.18025e-05
1.18025e-05
1.18025e-05
1.18025e-05
1.18025e-05
1.18025e-05
1.18025e-05
1.18025e-05
1.18025e-05
1.18025e-05
1.18025e-05
1.18025e-05
1.18025e-05
1.18025e-05
1.18025e-05
1.18025e-05
1.18025e-05
1.18025e-05
1.18025e-05
1.18025e-05
1.18025e-05
1.18025e-05
1.18025e-05
1.18025e-05
1.18025e-05
1.18025e-05
1.18025e-05
1.18025e-05
1.18025e-05
1.18025e-05
1.18025e-05
1.18025e-05
1.18025e-05
1.18025e-05
1.18024e-05
1.18024e-05
1.18024e-05
1.18024e-05
1.18024e-05
1.18024e-05
1.18025e-05
1.18025e-05
1.18025e-05
1.18025e-05
1.18025e-05
1.18025e-05
1.18025e-05
1.18025e-05
1.18025e-05
1.18025e-05
1.18025e-05
1.18025e-05
1.18025e-05
1.18025e-05
1.18025e-05
1.18025e-05
1.18025e-05
1.18025e-05
1.18025e-05
1.18025e-05
1.18025e-05
1.18025e-05
1.18025e-05
1.18025e-05
1.18025e-05
1.18025e-05
1.18025e-05
1.18025e-05
1.18025e-05
1.18025e-05
1.18025e-05
1.18025e-05
1.18025e-05
1.18025e-05
1.18025e-05
1.18025e-05
1.18025e-05
1.18025e-05
1.18025e-05
1.18025e-05
1.18025e-05
1.18025e-05
)
;

boundaryField
{
    AXIS
    {
        type            empty;
    }
    OUTLET
    {
        type            calculated;
        value           uniform 1.18025e-05;
    }
    COFLOW
    {
        type            calculated;
        value           uniform 1.18025e-05;
    }
    PILOT
    {
        type            calculated;
        value           uniform 1.56801e-06;
    }
    FUEL
    {
        type            calculated;
        value           uniform 1.04958e-05;
    }
    WALL
    {
        type            calculated;
        value           nonuniform List<scalar> 
50
(
1.18025e-05
1.18025e-05
1.18024e-05
1.18024e-05
1.18024e-05
1.18024e-05
1.18024e-05
1.18024e-05
1.18025e-05
1.18025e-05
1.18025e-05
1.18025e-05
1.18025e-05
1.18025e-05
1.18025e-05
1.18025e-05
1.18025e-05
1.18025e-05
1.18025e-05
1.18025e-05
1.18025e-05
1.18025e-05
1.18025e-05
1.18025e-05
1.18025e-05
1.18025e-05
1.18025e-05
1.18025e-05
1.18025e-05
1.18025e-05
1.18025e-05
1.18025e-05
1.18025e-05
1.18025e-05
1.18025e-05
1.18025e-05
1.18025e-05
1.18025e-05
1.18025e-05
1.18025e-05
1.18025e-05
1.18025e-05
1.18025e-05
1.18025e-05
1.18025e-05
1.18025e-05
1.18025e-05
1.18025e-05
1.18025e-05
1.18025e-05
)
;
    }
    front
    {
        type            wedge;
    }
    back
    {
        type            wedge;
    }
}


// ************************************************************************* //
