/*--------------------------------*- C++ -*----------------------------------*\
| =========                 |                                                 |
| \\      /  F ield         | OpenFOAM: The Open Source CFD Toolbox           |
|  \\    /   O peration     | Version:  2.4.x                                 |
|   \\  /    A nd           | Web:      www.OpenFOAM.org                      |
|    \\/     M anipulation  |                                                 |
\*---------------------------------------------------------------------------*/
FoamFile
{
    version     2.0;
    format      ascii;
    class       volScalarField;
    location    "0.01";
    object      thermo:mu;
}
// * * * * * * * * * * * * * * * * * * * * * * * * * * * * * * * * * * * * * //

dimensions      [1 -1 -1 0 0 0 0];

internalField   nonuniform List<scalar> 
1250
(
1.89089e-05
2.08743e-05
2.29451e-05
2.49876e-05
2.69601e-05
2.92441e-05
3.362e-05
4.02921e-05
4.35481e-05
4.29759e-05
4.16354e-05
3.89536e-05
3.60109e-05
3.28684e-05
2.99764e-05
2.71553e-05
2.45315e-05
2.21541e-05
1.99825e-05
1.8693e-05
1.82602e-05
1.81635e-05
1.81444e-05
1.81409e-05
1.81403e-05
1.81402e-05
1.81402e-05
1.81402e-05
1.81402e-05
1.81402e-05
1.81402e-05
1.81402e-05
1.81402e-05
1.81402e-05
1.81402e-05
1.81402e-05
1.81402e-05
1.81402e-05
1.81402e-05
1.81402e-05
1.81402e-05
1.81402e-05
1.81402e-05
1.81402e-05
1.81402e-05
1.81402e-05
1.81402e-05
1.81402e-05
1.81402e-05
1.81402e-05
1.90353e-05
2.12066e-05
2.33438e-05
2.54284e-05
2.73576e-05
2.97238e-05
3.42478e-05
4.06017e-05
4.35087e-05
4.29675e-05
4.15675e-05
3.88772e-05
3.59453e-05
3.2813e-05
2.99333e-05
2.71194e-05
2.4503e-05
2.21293e-05
1.9966e-05
1.86864e-05
1.82587e-05
1.81632e-05
1.81444e-05
1.81409e-05
1.81403e-05
1.81402e-05
1.81402e-05
1.81402e-05
1.81402e-05
1.81402e-05
1.81402e-05
1.81402e-05
1.81402e-05
1.81402e-05
1.81402e-05
1.81402e-05
1.81402e-05
1.81402e-05
1.81402e-05
1.81402e-05
1.81402e-05
1.81402e-05
1.81402e-05
1.81402e-05
1.81402e-05
1.81402e-05
1.81402e-05
1.81402e-05
1.81402e-05
1.81402e-05
1.94176e-05
2.212e-05
2.43818e-05
2.64697e-05
2.82298e-05
3.08577e-05
3.55739e-05
4.12286e-05
4.33691e-05
4.29769e-05
4.14112e-05
3.8716e-05
3.57921e-05
3.26876e-05
2.98312e-05
2.70337e-05
2.44338e-05
2.20678e-05
1.99241e-05
1.8669e-05
1.82545e-05
1.81624e-05
1.81442e-05
1.81409e-05
1.81403e-05
1.81402e-05
1.81402e-05
1.81402e-05
1.81402e-05
1.81402e-05
1.81402e-05
1.81402e-05
1.81402e-05
1.81402e-05
1.81402e-05
1.81402e-05
1.81402e-05
1.81402e-05
1.81402e-05
1.81402e-05
1.81402e-05
1.81402e-05
1.81402e-05
1.81402e-05
1.81402e-05
1.81402e-05
1.81402e-05
1.81402e-05
1.81402e-05
1.81402e-05
2.05399e-05
2.4114e-05
2.63945e-05
2.81611e-05
3.01525e-05
3.27857e-05
3.73515e-05
4.19903e-05
4.32661e-05
4.28779e-05
4.11417e-05
3.84627e-05
3.5545e-05
3.24981e-05
2.96707e-05
2.68984e-05
2.43237e-05
2.19693e-05
1.98572e-05
1.86417e-05
1.82481e-05
1.81612e-05
1.8144e-05
1.81408e-05
1.81403e-05
1.81402e-05
1.81402e-05
1.81402e-05
1.81402e-05
1.81402e-05
1.81402e-05
1.81402e-05
1.81402e-05
1.81402e-05
1.81402e-05
1.81402e-05
1.81402e-05
1.81402e-05
1.81402e-05
1.81402e-05
1.81402e-05
1.81402e-05
1.81402e-05
1.81402e-05
1.81402e-05
1.81402e-05
1.81402e-05
1.81402e-05
1.81402e-05
1.81402e-05
2.46505e-05
2.85304e-05
2.97824e-05
3.13038e-05
3.29127e-05
3.55371e-05
3.93081e-05
4.26604e-05
4.32206e-05
4.2648e-05
4.07627e-05
3.81257e-05
3.52158e-05
3.22446e-05
2.94562e-05
2.6717e-05
2.41756e-05
2.18362e-05
1.9768e-05
1.86064e-05
1.82398e-05
1.81596e-05
1.81437e-05
1.81408e-05
1.81403e-05
1.81402e-05
1.81402e-05
1.81402e-05
1.81402e-05
1.81402e-05
1.81402e-05
1.81402e-05
1.81402e-05
1.81402e-05
1.81402e-05
1.81402e-05
1.81402e-05
1.81402e-05
1.81402e-05
1.81402e-05
1.81402e-05
1.81402e-05
1.81402e-05
1.81402e-05
1.81402e-05
1.81402e-05
1.81402e-05
1.81402e-05
1.81402e-05
1.81402e-05
4.24622e-05
3.64632e-05
3.52775e-05
3.55932e-05
3.65331e-05
3.84576e-05
4.11685e-05
4.2974e-05
4.32011e-05
4.23366e-05
4.02791e-05
3.7691e-05
3.4815e-05
3.19226e-05
2.91819e-05
2.64941e-05
2.3993e-05
2.16717e-05
1.96597e-05
1.85651e-05
1.82304e-05
1.81577e-05
1.81434e-05
1.81407e-05
1.81403e-05
1.81402e-05
1.81402e-05
1.81402e-05
1.81402e-05
1.81402e-05
1.81402e-05
1.81402e-05
1.81402e-05
1.81402e-05
1.81402e-05
1.81402e-05
1.81402e-05
1.81402e-05
1.81402e-05
1.81402e-05
1.81402e-05
1.81402e-05
1.81402e-05
1.81402e-05
1.81402e-05
1.81402e-05
1.81402e-05
1.81402e-05
1.81402e-05
1.81402e-05
5.65769e-05
4.46854e-05
4.10614e-05
3.98963e-05
3.98878e-05
4.09901e-05
4.25222e-05
4.31899e-05
4.30341e-05
4.18517e-05
3.96926e-05
3.71621e-05
3.43362e-05
3.15455e-05
2.88573e-05
2.62347e-05
2.378e-05
2.14793e-05
1.9536e-05
1.85198e-05
1.82202e-05
1.81558e-05
1.8143e-05
1.81407e-05
1.81403e-05
1.81402e-05
1.81402e-05
1.81402e-05
1.81402e-05
1.81402e-05
1.81402e-05
1.81402e-05
1.81402e-05
1.81402e-05
1.81402e-05
1.81402e-05
1.81402e-05
1.81402e-05
1.81402e-05
1.81402e-05
1.81402e-05
1.81402e-05
1.81402e-05
1.81402e-05
1.81402e-05
1.81402e-05
1.81402e-05
1.81402e-05
1.81402e-05
1.81402e-05
6.30677e-05
4.90208e-05
4.45326e-05
4.28582e-05
4.2369e-05
4.27205e-05
4.3111e-05
4.32666e-05
4.26669e-05
4.12253e-05
3.90268e-05
3.65581e-05
3.38053e-05
3.11251e-05
2.84884e-05
2.59348e-05
2.35411e-05
2.12632e-05
1.94012e-05
1.8473e-05
1.82099e-05
1.81538e-05
1.81426e-05
1.81406e-05
1.81403e-05
1.81402e-05
1.81402e-05
1.81402e-05
1.81402e-05
1.81402e-05
1.81402e-05
1.81402e-05
1.81402e-05
1.81402e-05
1.81402e-05
1.81402e-05
1.81402e-05
1.81402e-05
1.81402e-05
1.81402e-05
1.81402e-05
1.81402e-05
1.81402e-05
1.81402e-05
1.81402e-05
1.81402e-05
1.81402e-05
1.81402e-05
1.81402e-05
1.81402e-05
6.34017e-05
4.94879e-05
4.53507e-05
4.3976e-05
4.34482e-05
4.33992e-05
4.33417e-05
4.30114e-05
4.21261e-05
4.04709e-05
3.83533e-05
3.58902e-05
3.32213e-05
3.06711e-05
2.80766e-05
2.55944e-05
2.32815e-05
2.10284e-05
1.92603e-05
1.84269e-05
1.82e-05
1.81519e-05
1.81423e-05
1.81405e-05
1.81402e-05
1.81402e-05
1.81402e-05
1.81402e-05
1.81402e-05
1.81402e-05
1.81402e-05
1.81402e-05
1.81402e-05
1.81402e-05
1.81402e-05
1.81402e-05
1.81402e-05
1.81402e-05
1.81402e-05
1.81402e-05
1.81402e-05
1.81402e-05
1.81402e-05
1.81402e-05
1.81402e-05
1.81402e-05
1.81402e-05
1.81402e-05
1.81402e-05
1.81402e-05
5.73275e-05
4.55719e-05
4.38954e-05
4.36511e-05
4.35016e-05
4.33721e-05
4.30631e-05
4.24959e-05
4.1335e-05
3.96081e-05
3.75737e-05
3.51648e-05
3.26408e-05
3.01725e-05
2.76447e-05
2.52364e-05
2.30069e-05
2.07811e-05
1.91191e-05
1.83834e-05
1.81908e-05
1.81501e-05
1.8142e-05
1.81405e-05
1.81402e-05
1.81402e-05
1.81402e-05
1.81402e-05
1.81402e-05
1.81402e-05
1.81402e-05
1.81402e-05
1.81402e-05
1.81402e-05
1.81402e-05
1.81402e-05
1.81402e-05
1.81402e-05
1.81402e-05
1.81402e-05
1.81402e-05
1.81402e-05
1.81402e-05
1.81402e-05
1.81402e-05
1.81402e-05
1.81402e-05
1.81402e-05
1.81402e-05
1.81402e-05
2.51612e-05
3.72576e-05
4.08934e-05
4.22436e-05
4.26527e-05
4.26671e-05
4.23639e-05
4.15977e-05
4.03427e-05
3.87132e-05
3.66953e-05
3.43795e-05
3.20147e-05
2.96187e-05
2.71878e-05
2.48569e-05
2.26992e-05
2.05201e-05
1.8979e-05
1.83429e-05
1.81824e-05
1.81484e-05
1.81417e-05
1.81404e-05
1.81402e-05
1.81402e-05
1.81402e-05
1.81402e-05
1.81402e-05
1.81402e-05
1.81402e-05
1.81402e-05
1.81402e-05
1.81402e-05
1.81402e-05
1.81402e-05
1.81402e-05
1.81402e-05
1.81402e-05
1.81402e-05
1.81402e-05
1.81402e-05
1.81402e-05
1.81402e-05
1.81402e-05
1.81402e-05
1.81402e-05
1.81402e-05
1.81402e-05
1.81402e-05
2.02097e-05
3.16529e-05
3.74976e-05
3.99412e-05
4.10354e-05
4.13188e-05
4.10703e-05
4.03198e-05
3.91619e-05
3.76131e-05
3.56677e-05
3.34876e-05
3.12937e-05
2.89866e-05
2.66738e-05
2.44285e-05
2.23077e-05
2.02291e-05
1.88346e-05
1.83039e-05
1.81744e-05
1.81469e-05
1.81414e-05
1.81404e-05
1.81402e-05
1.81402e-05
1.81402e-05
1.81402e-05
1.81402e-05
1.81402e-05
1.81402e-05
1.81402e-05
1.81402e-05
1.81402e-05
1.81402e-05
1.81402e-05
1.81402e-05
1.81402e-05
1.81402e-05
1.81402e-05
1.81402e-05
1.81402e-05
1.81402e-05
1.81402e-05
1.81402e-05
1.81402e-05
1.81402e-05
1.81402e-05
1.81402e-05
1.81402e-05
1.92849e-05
2.82848e-05
3.42872e-05
3.73218e-05
3.88079e-05
3.93702e-05
3.93075e-05
3.87721e-05
3.77163e-05
3.62423e-05
3.44403e-05
3.25032e-05
3.04253e-05
2.82243e-05
2.60641e-05
2.39221e-05
2.18409e-05
1.9893e-05
1.86841e-05
1.82657e-05
1.81665e-05
1.81453e-05
1.81411e-05
1.81403e-05
1.81402e-05
1.81402e-05
1.81402e-05
1.81402e-05
1.81402e-05
1.81402e-05
1.81402e-05
1.81402e-05
1.81402e-05
1.81402e-05
1.81402e-05
1.81402e-05
1.81402e-05
1.81402e-05
1.81402e-05
1.81402e-05
1.81402e-05
1.81402e-05
1.81402e-05
1.81402e-05
1.81402e-05
1.81402e-05
1.81402e-05
1.81402e-05
1.81402e-05
1.81402e-05
1.89531e-05
2.59152e-05
3.13367e-05
3.44608e-05
3.62468e-05
3.70771e-05
3.71909e-05
3.68051e-05
3.58941e-05
3.45934e-05
3.30468e-05
3.13124e-05
2.93551e-05
2.73256e-05
2.5296e-05
2.33193e-05
2.12819e-05
1.95129e-05
1.85346e-05
1.823e-05
1.81591e-05
1.81439e-05
1.81409e-05
1.81403e-05
1.81402e-05
1.81402e-05
1.81402e-05
1.81402e-05
1.81402e-05
1.81402e-05
1.81402e-05
1.81402e-05
1.81402e-05
1.81402e-05
1.81402e-05
1.81402e-05
1.81402e-05
1.81402e-05
1.81402e-05
1.81402e-05
1.81402e-05
1.81402e-05
1.81402e-05
1.81402e-05
1.81402e-05
1.81402e-05
1.81402e-05
1.81402e-05
1.81402e-05
1.81402e-05
1.87438e-05
2.40832e-05
2.86911e-05
3.15815e-05
3.33544e-05
3.4338e-05
3.46556e-05
3.44486e-05
3.37901e-05
3.27722e-05
3.14546e-05
2.98519e-05
2.8099e-05
2.629e-05
2.44021e-05
2.25644e-05
2.06241e-05
1.91095e-05
1.83986e-05
1.81988e-05
1.81526e-05
1.81426e-05
1.81406e-05
1.81403e-05
1.81402e-05
1.81402e-05
1.81402e-05
1.81402e-05
1.81402e-05
1.81402e-05
1.81402e-05
1.81402e-05
1.81402e-05
1.81402e-05
1.81402e-05
1.81402e-05
1.81402e-05
1.81402e-05
1.81402e-05
1.81402e-05
1.81402e-05
1.81402e-05
1.81402e-05
1.81402e-05
1.81402e-05
1.81402e-05
1.81402e-05
1.81402e-05
1.81402e-05
1.81402e-05
1.8578e-05
2.25945e-05
2.63381e-05
2.88556e-05
3.05543e-05
3.15646e-05
3.20113e-05
3.19755e-05
3.15484e-05
3.07032e-05
2.95517e-05
2.81849e-05
2.66751e-05
2.50375e-05
2.33791e-05
2.15905e-05
1.98858e-05
1.87309e-05
1.82894e-05
1.81742e-05
1.81474e-05
1.81416e-05
1.81404e-05
1.81402e-05
1.81402e-05
1.81402e-05
1.81402e-05
1.81402e-05
1.81402e-05
1.81402e-05
1.81402e-05
1.81402e-05
1.81402e-05
1.81402e-05
1.81402e-05
1.81402e-05
1.81402e-05
1.81402e-05
1.81402e-05
1.81402e-05
1.81402e-05
1.81402e-05
1.81402e-05
1.81402e-05
1.81402e-05
1.81402e-05
1.81402e-05
1.81402e-05
1.81402e-05
1.81402e-05
1.8439e-05
2.11291e-05
2.4109e-05
2.62465e-05
2.77361e-05
2.87334e-05
2.9232e-05
2.9302e-05
2.90319e-05
2.8388e-05
2.74758e-05
2.63716e-05
2.50562e-05
2.36581e-05
2.2124e-05
2.0504e-05
1.91497e-05
1.84385e-05
1.82143e-05
1.81572e-05
1.81438e-05
1.81409e-05
1.81403e-05
1.81402e-05
1.81402e-05
1.81402e-05
1.81402e-05
1.81402e-05
1.81402e-05
1.81402e-05
1.81402e-05
1.81402e-05
1.81402e-05
1.81402e-05
1.81402e-05
1.81402e-05
1.81402e-05
1.81402e-05
1.81402e-05
1.81402e-05
1.81402e-05
1.81402e-05
1.81402e-05
1.81402e-05
1.81402e-05
1.81402e-05
1.81402e-05
1.81402e-05
1.81402e-05
1.81402e-05
1.8327e-05
1.99349e-05
2.21903e-05
2.38562e-05
2.50919e-05
2.59727e-05
2.64701e-05
2.66151e-05
2.64707e-05
2.60228e-05
2.53026e-05
2.43899e-05
2.3336e-05
2.20653e-05
2.06818e-05
1.94073e-05
1.85816e-05
1.82624e-05
1.81709e-05
1.81472e-05
1.81417e-05
1.81405e-05
1.81402e-05
1.81402e-05
1.81402e-05
1.81402e-05
1.81402e-05
1.81402e-05
1.81402e-05
1.81402e-05
1.81402e-05
1.81402e-05
1.81402e-05
1.81402e-05
1.81402e-05
1.81402e-05
1.81402e-05
1.81402e-05
1.81402e-05
1.81402e-05
1.81402e-05
1.81402e-05
1.81402e-05
1.81402e-05
1.81402e-05
1.81402e-05
1.81402e-05
1.81402e-05
1.81402e-05
1.81402e-05
1.82403e-05
1.89908e-05
2.0418e-05
2.17071e-05
2.27616e-05
2.34514e-05
2.38699e-05
2.40297e-05
2.39534e-05
2.36476e-05
2.31216e-05
2.23378e-05
2.13683e-05
2.0312e-05
1.93015e-05
1.85976e-05
1.82836e-05
1.81802e-05
1.81503e-05
1.81425e-05
1.81407e-05
1.81403e-05
1.81402e-05
1.81402e-05
1.81402e-05
1.81402e-05
1.81402e-05
1.81402e-05
1.81402e-05
1.81402e-05
1.81402e-05
1.81402e-05
1.81402e-05
1.81402e-05
1.81402e-05
1.81402e-05
1.81402e-05
1.81402e-05
1.81402e-05
1.81402e-05
1.81402e-05
1.81402e-05
1.81402e-05
1.81402e-05
1.81402e-05
1.81402e-05
1.81402e-05
1.81402e-05
1.81402e-05
1.81402e-05
1.81831e-05
1.84132e-05
1.90023e-05
1.97641e-05
2.04608e-05
2.10085e-05
2.13636e-05
2.15043e-05
2.1445e-05
2.11882e-05
2.07323e-05
2.01372e-05
1.94738e-05
1.88663e-05
1.84538e-05
1.8253e-05
1.8176e-05
1.81503e-05
1.81427e-05
1.81408e-05
1.81403e-05
1.81402e-05
1.81402e-05
1.81402e-05
1.81402e-05
1.81402e-05
1.81402e-05
1.81402e-05
1.81402e-05
1.81402e-05
1.81402e-05
1.81402e-05
1.81402e-05
1.81402e-05
1.81402e-05
1.81402e-05
1.81402e-05
1.81402e-05
1.81402e-05
1.81402e-05
1.81402e-05
1.81402e-05
1.81402e-05
1.81402e-05
1.81402e-05
1.81402e-05
1.81402e-05
1.81402e-05
1.81402e-05
1.81402e-05
1.81559e-05
1.82133e-05
1.83365e-05
1.8537e-05
1.88042e-05
1.9062e-05
1.92395e-05
1.93009e-05
1.92611e-05
1.91167e-05
1.88883e-05
1.86388e-05
1.84233e-05
1.82773e-05
1.81975e-05
1.81612e-05
1.81469e-05
1.81421e-05
1.81407e-05
1.81403e-05
1.81402e-05
1.81402e-05
1.81402e-05
1.81402e-05
1.81402e-05
1.81402e-05
1.81402e-05
1.81402e-05
1.81402e-05
1.81402e-05
1.81402e-05
1.81402e-05
1.81402e-05
1.81402e-05
1.81402e-05
1.81402e-05
1.81402e-05
1.81402e-05
1.81402e-05
1.81402e-05
1.81402e-05
1.81402e-05
1.81402e-05
1.81402e-05
1.81402e-05
1.81402e-05
1.81402e-05
1.81402e-05
1.81402e-05
1.81402e-05
1.81449e-05
1.81587e-05
1.81798e-05
1.82096e-05
1.82486e-05
1.82907e-05
1.83245e-05
1.83346e-05
1.83216e-05
1.829e-05
1.82497e-05
1.82107e-05
1.818e-05
1.81598e-05
1.81483e-05
1.81431e-05
1.81411e-05
1.81405e-05
1.81403e-05
1.81402e-05
1.81402e-05
1.81402e-05
1.81402e-05
1.81402e-05
1.81402e-05
1.81402e-05
1.81402e-05
1.81402e-05
1.81402e-05
1.81402e-05
1.81402e-05
1.81402e-05
1.81402e-05
1.81402e-05
1.81402e-05
1.81402e-05
1.81402e-05
1.81402e-05
1.81402e-05
1.81402e-05
1.81402e-05
1.81402e-05
1.81402e-05
1.81402e-05
1.81402e-05
1.81402e-05
1.81402e-05
1.81402e-05
1.81402e-05
1.81402e-05
1.81412e-05
1.8144e-05
1.81474e-05
1.81511e-05
1.81549e-05
1.81585e-05
1.8161e-05
1.81612e-05
1.81592e-05
1.81556e-05
1.81513e-05
1.81473e-05
1.81442e-05
1.81422e-05
1.81411e-05
1.81405e-05
1.81403e-05
1.81402e-05
1.81402e-05
1.81402e-05
1.81402e-05
1.81402e-05
1.81402e-05
1.81402e-05
1.81402e-05
1.81402e-05
1.81402e-05
1.81402e-05
1.81402e-05
1.81402e-05
1.81402e-05
1.81402e-05
1.81402e-05
1.81402e-05
1.81402e-05
1.81402e-05
1.81402e-05
1.81402e-05
1.81402e-05
1.81402e-05
1.81402e-05
1.81402e-05
1.81402e-05
1.81402e-05
1.81402e-05
1.81402e-05
1.81402e-05
1.81402e-05
1.81402e-05
1.81402e-05
1.81403e-05
1.81407e-05
1.81411e-05
1.81415e-05
1.81417e-05
1.81418e-05
1.81419e-05
1.81418e-05
1.81416e-05
1.81413e-05
1.8141e-05
1.81407e-05
1.81405e-05
1.81403e-05
1.81402e-05
1.81402e-05
1.81402e-05
1.81402e-05
1.81402e-05
1.81402e-05
1.81402e-05
1.81402e-05
1.81402e-05
1.81402e-05
1.81402e-05
1.81402e-05
1.81402e-05
1.81402e-05
1.81402e-05
1.81402e-05
1.81402e-05
1.81402e-05
1.81402e-05
1.81402e-05
1.81402e-05
1.81402e-05
1.81402e-05
1.81402e-05
1.81402e-05
1.81402e-05
1.81402e-05
1.81402e-05
1.81402e-05
1.81402e-05
1.81402e-05
1.81402e-05
1.81402e-05
1.81402e-05
1.81402e-05
1.81402e-05
1.81402e-05
1.81402e-05
1.81402e-05
1.81403e-05
1.81403e-05
1.81403e-05
1.81403e-05
1.81403e-05
1.81402e-05
1.81402e-05
1.81402e-05
1.81402e-05
1.81402e-05
1.81402e-05
1.81402e-05
1.81402e-05
1.81402e-05
1.81402e-05
1.81402e-05
1.81402e-05
1.81402e-05
1.81402e-05
1.81402e-05
1.81402e-05
1.81402e-05
1.81402e-05
1.81402e-05
1.81402e-05
1.81402e-05
1.81402e-05
1.81402e-05
1.81402e-05
1.81402e-05
1.81402e-05
1.81402e-05
1.81402e-05
1.81402e-05
1.81402e-05
1.81402e-05
1.81402e-05
1.81402e-05
1.81402e-05
1.81402e-05
1.81402e-05
1.81402e-05
1.81402e-05
1.81402e-05
1.81402e-05
1.81402e-05
1.81402e-05
)
;

boundaryField
{
    AXIS
    {
        type            empty;
    }
    OUTLET
    {
        type            calculated;
        value           uniform 1.81402e-05;
    }
    COFLOW
    {
        type            calculated;
        value           uniform 1.81402e-05;
    }
    PILOT
    {
        type            calculated;
        value           uniform 7.09187e-05;
    }
    FUEL
    {
        type            calculated;
        value           uniform 1.81402e-05;
    }
    WALL
    {
        type            calculated;
        value           nonuniform List<scalar> 
50
(
1.81402e-05
1.81402e-05
1.81402e-05
1.81403e-05
1.81403e-05
1.81403e-05
1.81403e-05
1.81403e-05
1.81402e-05
1.81402e-05
1.81402e-05
1.81402e-05
1.81402e-05
1.81402e-05
1.81402e-05
1.81402e-05
1.81402e-05
1.81402e-05
1.81402e-05
1.81402e-05
1.81402e-05
1.81402e-05
1.81402e-05
1.81402e-05
1.81402e-05
1.81402e-05
1.81402e-05
1.81402e-05
1.81402e-05
1.81402e-05
1.81402e-05
1.81402e-05
1.81402e-05
1.81402e-05
1.81402e-05
1.81402e-05
1.81402e-05
1.81402e-05
1.81402e-05
1.81402e-05
1.81402e-05
1.81402e-05
1.81402e-05
1.81402e-05
1.81402e-05
1.81402e-05
1.81402e-05
1.81402e-05
1.81402e-05
1.81402e-05
)
;
    }
    front
    {
        type            wedge;
    }
    back
    {
        type            wedge;
    }
}


// ************************************************************************* //
