/*--------------------------------*- C++ -*----------------------------------*\
| =========                 |                                                 |
| \\      /  F ield         | OpenFOAM: The Open Source CFD Toolbox           |
|  \\    /   O peration     | Version:  2.4.x                                 |
|   \\  /    A nd           | Web:      www.OpenFOAM.org                      |
|    \\/     M anipulation  |                                                 |
\*---------------------------------------------------------------------------*/
FoamFile
{
    version     2.0;
    format      ascii;
    class       volScalarField;
    location    "0.01";
    object      thermo:alpha;
}
// * * * * * * * * * * * * * * * * * * * * * * * * * * * * * * * * * * * * * //

dimensions      [1 -1 -1 0 0 0 0];

internalField   nonuniform List<scalar> 
1250
(
2.725e-05
3.00425e-05
3.29704e-05
3.58449e-05
3.86108e-05
4.18071e-05
4.79177e-05
5.72497e-05
6.19268e-05
6.12936e-05
5.95421e-05
5.58637e-05
5.17692e-05
4.735e-05
4.32523e-05
3.92309e-05
3.54742e-05
3.20593e-05
2.89325e-05
2.70733e-05
2.64488e-05
2.63092e-05
2.62817e-05
2.62766e-05
2.62757e-05
2.62756e-05
2.62756e-05
2.62756e-05
2.62756e-05
2.62756e-05
2.62756e-05
2.62756e-05
2.62756e-05
2.62756e-05
2.62756e-05
2.62756e-05
2.62756e-05
2.62756e-05
2.62756e-05
2.62756e-05
2.62756e-05
2.62756e-05
2.62756e-05
2.62756e-05
2.62756e-05
2.62756e-05
2.62756e-05
2.62756e-05
2.62756e-05
2.62756e-05
2.74299e-05
3.05133e-05
3.35324e-05
3.64636e-05
3.91671e-05
4.24772e-05
4.87933e-05
5.76879e-05
6.18814e-05
6.12874e-05
5.94504e-05
5.57581e-05
5.16775e-05
4.72717e-05
4.31911e-05
3.91797e-05
3.54333e-05
3.20235e-05
2.89087e-05
2.70636e-05
2.64466e-05
2.63088e-05
2.62816e-05
2.62766e-05
2.62757e-05
2.62756e-05
2.62756e-05
2.62756e-05
2.62756e-05
2.62756e-05
2.62756e-05
2.62756e-05
2.62756e-05
2.62756e-05
2.62756e-05
2.62756e-05
2.62756e-05
2.62756e-05
2.62756e-05
2.62756e-05
2.62756e-05
2.62756e-05
2.62756e-05
2.62756e-05
2.62756e-05
2.62756e-05
2.62756e-05
2.62756e-05
2.62756e-05
2.62756e-05
2.7974e-05
3.18054e-05
3.49933e-05
3.79229e-05
4.03869e-05
4.40605e-05
5.06443e-05
5.85782e-05
6.17082e-05
6.13128e-05
5.92389e-05
5.55355e-05
5.14629e-05
4.70946e-05
4.30459e-05
3.90572e-05
3.5334e-05
3.1935e-05
2.88484e-05
2.70386e-05
2.64406e-05
2.63076e-05
2.62814e-05
2.62765e-05
2.62757e-05
2.62756e-05
2.62756e-05
2.62756e-05
2.62756e-05
2.62756e-05
2.62756e-05
2.62756e-05
2.62756e-05
2.62756e-05
2.62756e-05
2.62756e-05
2.62756e-05
2.62756e-05
2.62756e-05
2.62756e-05
2.62756e-05
2.62756e-05
2.62756e-05
2.62756e-05
2.62756e-05
2.62756e-05
2.62756e-05
2.62756e-05
2.62756e-05
2.62756e-05
2.95682e-05
3.46159e-05
3.78166e-05
4.02882e-05
4.30712e-05
4.67504e-05
5.31312e-05
5.96683e-05
6.15948e-05
6.11931e-05
5.88724e-05
5.51853e-05
5.11168e-05
4.68269e-05
4.28176e-05
3.88637e-05
3.51761e-05
3.17933e-05
2.8752e-05
2.69993e-05
2.64312e-05
2.63058e-05
2.62811e-05
2.62765e-05
2.62757e-05
2.62756e-05
2.62756e-05
2.62756e-05
2.62756e-05
2.62756e-05
2.62756e-05
2.62756e-05
2.62756e-05
2.62756e-05
2.62756e-05
2.62756e-05
2.62756e-05
2.62756e-05
2.62756e-05
2.62756e-05
2.62756e-05
2.62756e-05
2.62756e-05
2.62756e-05
2.62756e-05
2.62756e-05
2.62756e-05
2.62756e-05
2.62756e-05
2.62756e-05
3.53696e-05
4.07976e-05
4.25473e-05
4.46711e-05
4.69199e-05
5.059e-05
5.58808e-05
6.06446e-05
6.15683e-05
6.08954e-05
5.8355e-05
5.47187e-05
5.06552e-05
4.64687e-05
4.25125e-05
3.86044e-05
3.49636e-05
3.16018e-05
2.86234e-05
2.69483e-05
2.64193e-05
2.63035e-05
2.62806e-05
2.62764e-05
2.62757e-05
2.62756e-05
2.62756e-05
2.62756e-05
2.62756e-05
2.62756e-05
2.62756e-05
2.62756e-05
2.62756e-05
2.62756e-05
2.62756e-05
2.62756e-05
2.62756e-05
2.62756e-05
2.62756e-05
2.62756e-05
2.62756e-05
2.62756e-05
2.62756e-05
2.62756e-05
2.62756e-05
2.62756e-05
2.62756e-05
2.62756e-05
2.62756e-05
2.62756e-05
6.01033e-05
5.18175e-05
5.01926e-05
5.06459e-05
5.19713e-05
5.46804e-05
5.85143e-05
6.11369e-05
6.15821e-05
6.04883e-05
5.76926e-05
5.41153e-05
5.00925e-05
4.60132e-05
4.21221e-05
3.82856e-05
3.47015e-05
3.13651e-05
2.84673e-05
2.68886e-05
2.64057e-05
2.63009e-05
2.62802e-05
2.62763e-05
2.62757e-05
2.62756e-05
2.62756e-05
2.62756e-05
2.62756e-05
2.62756e-05
2.62756e-05
2.62756e-05
2.62756e-05
2.62756e-05
2.62756e-05
2.62756e-05
2.62756e-05
2.62756e-05
2.62756e-05
2.62756e-05
2.62756e-05
2.62756e-05
2.62756e-05
2.62756e-05
2.62756e-05
2.62756e-05
2.62756e-05
2.62756e-05
2.62756e-05
2.62756e-05
7.99093e-05
6.3278e-05
5.82651e-05
5.66665e-05
5.66804e-05
5.82567e-05
6.04625e-05
6.14989e-05
6.13924e-05
5.9838e-05
5.68861e-05
5.33787e-05
4.94195e-05
4.54793e-05
4.16597e-05
3.79145e-05
3.43957e-05
3.10882e-05
2.82889e-05
2.68234e-05
2.6391e-05
2.62981e-05
2.62796e-05
2.62762e-05
2.62757e-05
2.62756e-05
2.62756e-05
2.62756e-05
2.62756e-05
2.62756e-05
2.62756e-05
2.62756e-05
2.62756e-05
2.62756e-05
2.62756e-05
2.62756e-05
2.62756e-05
2.62756e-05
2.62756e-05
2.62756e-05
2.62756e-05
2.62756e-05
2.62756e-05
2.62756e-05
2.62756e-05
2.62756e-05
2.62756e-05
2.62756e-05
2.62756e-05
2.62756e-05
8.92352e-05
6.94771e-05
6.32007e-05
6.08739e-05
6.02121e-05
6.07427e-05
6.13595e-05
6.16677e-05
6.09234e-05
5.89889e-05
5.59677e-05
5.25359e-05
4.86722e-05
4.48836e-05
4.11339e-05
3.74852e-05
3.40527e-05
3.07772e-05
2.80945e-05
2.67558e-05
2.63762e-05
2.62952e-05
2.62791e-05
2.62761e-05
2.62757e-05
2.62756e-05
2.62756e-05
2.62756e-05
2.62756e-05
2.62756e-05
2.62756e-05
2.62756e-05
2.62756e-05
2.62756e-05
2.62756e-05
2.62756e-05
2.62756e-05
2.62756e-05
2.62756e-05
2.62756e-05
2.62756e-05
2.62756e-05
2.62756e-05
2.62756e-05
2.62756e-05
2.62756e-05
2.62756e-05
2.62756e-05
2.62756e-05
2.62756e-05
8.9791e-05
7.033e-05
6.44943e-05
6.25517e-05
6.18197e-05
6.17803e-05
6.17588e-05
6.1371e-05
6.02105e-05
5.79583e-05
5.5037e-05
5.16017e-05
4.78489e-05
4.42396e-05
4.05466e-05
3.69977e-05
3.36798e-05
3.04392e-05
2.78914e-05
2.66892e-05
2.63619e-05
2.62924e-05
2.62786e-05
2.62761e-05
2.62756e-05
2.62756e-05
2.62756e-05
2.62756e-05
2.62756e-05
2.62756e-05
2.62756e-05
2.62756e-05
2.62756e-05
2.62756e-05
2.62756e-05
2.62756e-05
2.62756e-05
2.62756e-05
2.62756e-05
2.62756e-05
2.62756e-05
2.62756e-05
2.62756e-05
2.62756e-05
2.62756e-05
2.62756e-05
2.62756e-05
2.62756e-05
2.62756e-05
2.62756e-05
8.1446e-05
6.50354e-05
6.26068e-05
6.22192e-05
6.19979e-05
6.18321e-05
6.14417e-05
6.07067e-05
5.9141e-05
5.67723e-05
5.39539e-05
5.05848e-05
4.70295e-05
4.35315e-05
3.99302e-05
3.64849e-05
3.32853e-05
3.0083e-05
2.76877e-05
2.66265e-05
2.63486e-05
2.62898e-05
2.62781e-05
2.6276e-05
2.62756e-05
2.62756e-05
2.62756e-05
2.62756e-05
2.62756e-05
2.62756e-05
2.62756e-05
2.62756e-05
2.62756e-05
2.62756e-05
2.62756e-05
2.62756e-05
2.62756e-05
2.62756e-05
2.62756e-05
2.62756e-05
2.62756e-05
2.62756e-05
2.62756e-05
2.62756e-05
2.62756e-05
2.62756e-05
2.62756e-05
2.62756e-05
2.62756e-05
2.62756e-05
3.63774e-05
5.35054e-05
5.85213e-05
6.03567e-05
6.09045e-05
6.09288e-05
6.05311e-05
5.94991e-05
5.77845e-05
5.55379e-05
5.2729e-05
4.94814e-05
4.61443e-05
4.27439e-05
3.92775e-05
3.59408e-05
3.2843e-05
2.97072e-05
2.74857e-05
2.65681e-05
2.63365e-05
2.62875e-05
2.62777e-05
2.62759e-05
2.62756e-05
2.62756e-05
2.62756e-05
2.62756e-05
2.62756e-05
2.62756e-05
2.62756e-05
2.62756e-05
2.62756e-05
2.62756e-05
2.62756e-05
2.62756e-05
2.62756e-05
2.62756e-05
2.62756e-05
2.62756e-05
2.62756e-05
2.62756e-05
2.62756e-05
2.62756e-05
2.62756e-05
2.62756e-05
2.62756e-05
2.62756e-05
2.62756e-05
2.62756e-05
2.92597e-05
4.56239e-05
5.38284e-05
5.72134e-05
5.87212e-05
5.91141e-05
5.87789e-05
5.77531e-05
5.61592e-05
5.40102e-05
5.12912e-05
4.82253e-05
4.51232e-05
4.18441e-05
3.85427e-05
3.53265e-05
3.228e-05
2.92879e-05
2.72774e-05
2.65118e-05
2.63249e-05
2.62852e-05
2.62773e-05
2.62758e-05
2.62756e-05
2.62756e-05
2.62756e-05
2.62756e-05
2.62756e-05
2.62756e-05
2.62756e-05
2.62756e-05
2.62756e-05
2.62756e-05
2.62756e-05
2.62756e-05
2.62756e-05
2.62756e-05
2.62756e-05
2.62756e-05
2.62756e-05
2.62756e-05
2.62756e-05
2.62756e-05
2.62756e-05
2.62756e-05
2.62756e-05
2.62756e-05
2.62756e-05
2.62756e-05
2.79267e-05
4.08404e-05
4.9342e-05
5.35914e-05
5.5659e-05
5.64407e-05
5.63576e-05
5.56203e-05
5.41544e-05
5.20966e-05
4.95677e-05
4.68358e-05
4.3891e-05
4.07575e-05
3.76704e-05
3.45998e-05
3.16087e-05
2.88035e-05
2.70603e-05
2.64567e-05
2.63136e-05
2.6283e-05
2.62769e-05
2.62758e-05
2.62756e-05
2.62756e-05
2.62756e-05
2.62756e-05
2.62756e-05
2.62756e-05
2.62756e-05
2.62756e-05
2.62756e-05
2.62756e-05
2.62756e-05
2.62756e-05
2.62756e-05
2.62756e-05
2.62756e-05
2.62756e-05
2.62756e-05
2.62756e-05
2.62756e-05
2.62756e-05
2.62756e-05
2.62756e-05
2.62756e-05
2.62756e-05
2.62756e-05
2.62756e-05
2.74483e-05
3.74558e-05
4.51796e-05
4.95908e-05
5.20979e-05
5.32602e-05
5.34204e-05
5.28831e-05
5.1609e-05
4.97833e-05
4.7604e-05
4.51501e-05
4.2369e-05
3.94746e-05
3.65704e-05
3.37342e-05
3.08042e-05
2.82556e-05
2.68447e-05
2.64051e-05
2.63029e-05
2.62809e-05
2.62765e-05
2.62757e-05
2.62756e-05
2.62756e-05
2.62756e-05
2.62756e-05
2.62756e-05
2.62756e-05
2.62756e-05
2.62756e-05
2.62756e-05
2.62756e-05
2.62756e-05
2.62756e-05
2.62756e-05
2.62756e-05
2.62756e-05
2.62756e-05
2.62756e-05
2.62756e-05
2.62756e-05
2.62756e-05
2.62756e-05
2.62756e-05
2.62756e-05
2.62756e-05
2.62756e-05
2.62756e-05
2.71465e-05
3.48305e-05
4.14214e-05
4.55287e-05
4.80354e-05
4.94221e-05
4.98697e-05
4.95792e-05
4.86526e-05
4.72165e-05
4.5352e-05
4.3076e-05
4.05787e-05
3.79938e-05
3.52886e-05
3.26492e-05
2.98569e-05
2.7674e-05
2.66484e-05
2.63601e-05
2.62935e-05
2.62791e-05
2.62762e-05
2.62757e-05
2.62756e-05
2.62756e-05
2.62756e-05
2.62756e-05
2.62756e-05
2.62756e-05
2.62756e-05
2.62756e-05
2.62756e-05
2.62756e-05
2.62756e-05
2.62756e-05
2.62756e-05
2.62756e-05
2.62756e-05
2.62756e-05
2.62756e-05
2.62756e-05
2.62756e-05
2.62756e-05
2.62756e-05
2.62756e-05
2.62756e-05
2.62756e-05
2.62756e-05
2.62756e-05
2.69072e-05
3.26923e-05
3.80621e-05
4.16568e-05
4.40734e-05
4.55069e-05
4.61399e-05
4.60895e-05
4.54848e-05
4.42859e-05
4.2649e-05
4.07014e-05
3.85447e-05
3.61999e-05
3.38201e-05
3.12483e-05
2.87932e-05
2.71279e-05
2.64909e-05
2.63247e-05
2.6286e-05
2.62776e-05
2.62759e-05
2.62756e-05
2.62756e-05
2.62756e-05
2.62756e-05
2.62756e-05
2.62756e-05
2.62756e-05
2.62756e-05
2.62756e-05
2.62756e-05
2.62756e-05
2.62756e-05
2.62756e-05
2.62756e-05
2.62756e-05
2.62756e-05
2.62756e-05
2.62756e-05
2.62756e-05
2.62756e-05
2.62756e-05
2.62756e-05
2.62756e-05
2.62756e-05
2.62756e-05
2.62756e-05
2.62756e-05
2.67068e-05
3.05841e-05
3.4868e-05
3.79314e-05
4.00607e-05
4.14834e-05
4.21938e-05
4.22935e-05
4.19089e-05
4.09911e-05
3.96892e-05
3.81106e-05
3.62267e-05
3.42207e-05
3.20159e-05
2.9684e-05
2.77319e-05
2.6706e-05
2.63825e-05
2.63001e-05
2.62807e-05
2.62766e-05
2.62757e-05
2.62756e-05
2.62756e-05
2.62756e-05
2.62756e-05
2.62756e-05
2.62756e-05
2.62756e-05
2.62756e-05
2.62756e-05
2.62756e-05
2.62756e-05
2.62756e-05
2.62756e-05
2.62756e-05
2.62756e-05
2.62756e-05
2.62756e-05
2.62756e-05
2.62756e-05
2.62756e-05
2.62756e-05
2.62756e-05
2.62756e-05
2.62756e-05
2.62756e-05
2.62756e-05
2.62756e-05
2.65452e-05
2.88639e-05
3.21113e-05
3.45052e-05
3.62779e-05
3.75397e-05
3.82514e-05
3.84589e-05
3.82525e-05
3.76115e-05
3.65799e-05
3.52713e-05
3.37582e-05
3.19315e-05
2.99401e-05
2.81034e-05
2.69125e-05
2.64519e-05
2.63198e-05
2.62857e-05
2.62777e-05
2.6276e-05
2.62756e-05
2.62756e-05
2.62756e-05
2.62756e-05
2.62756e-05
2.62756e-05
2.62756e-05
2.62756e-05
2.62756e-05
2.62756e-05
2.62756e-05
2.62756e-05
2.62756e-05
2.62756e-05
2.62756e-05
2.62756e-05
2.62756e-05
2.62756e-05
2.62756e-05
2.62756e-05
2.62756e-05
2.62756e-05
2.62756e-05
2.62756e-05
2.62756e-05
2.62756e-05
2.62756e-05
2.62756e-05
2.642e-05
2.75028e-05
2.956e-05
3.14162e-05
3.29328e-05
3.3924e-05
3.45248e-05
3.47543e-05
3.46448e-05
3.42057e-05
3.34502e-05
3.23235e-05
3.09285e-05
2.94074e-05
2.79508e-05
2.69356e-05
2.64826e-05
2.63333e-05
2.62902e-05
2.62789e-05
2.62762e-05
2.62757e-05
2.62756e-05
2.62756e-05
2.62756e-05
2.62756e-05
2.62756e-05
2.62756e-05
2.62756e-05
2.62756e-05
2.62756e-05
2.62756e-05
2.62756e-05
2.62756e-05
2.62756e-05
2.62756e-05
2.62756e-05
2.62756e-05
2.62756e-05
2.62756e-05
2.62756e-05
2.62756e-05
2.62756e-05
2.62756e-05
2.62756e-05
2.62756e-05
2.62756e-05
2.62756e-05
2.62756e-05
2.62756e-05
2.63374e-05
2.66695e-05
2.75193e-05
2.86178e-05
2.96217e-05
3.04106e-05
3.09219e-05
3.11243e-05
3.1039e-05
3.06693e-05
3.00128e-05
2.91554e-05
2.81993e-05
2.73231e-05
2.67281e-05
2.64383e-05
2.63272e-05
2.62902e-05
2.62792e-05
2.62764e-05
2.62757e-05
2.62756e-05
2.62756e-05
2.62756e-05
2.62756e-05
2.62756e-05
2.62756e-05
2.62756e-05
2.62756e-05
2.62756e-05
2.62756e-05
2.62756e-05
2.62756e-05
2.62756e-05
2.62756e-05
2.62756e-05
2.62756e-05
2.62756e-05
2.62756e-05
2.62756e-05
2.62756e-05
2.62756e-05
2.62756e-05
2.62756e-05
2.62756e-05
2.62756e-05
2.62756e-05
2.62756e-05
2.62756e-05
2.62756e-05
2.62982e-05
2.6381e-05
2.65588e-05
2.68481e-05
2.72336e-05
2.76055e-05
2.78615e-05
2.795e-05
2.78926e-05
2.76843e-05
2.73549e-05
2.6995e-05
2.66842e-05
2.64734e-05
2.63583e-05
2.63058e-05
2.62853e-05
2.62783e-05
2.62763e-05
2.62757e-05
2.62756e-05
2.62756e-05
2.62756e-05
2.62756e-05
2.62756e-05
2.62756e-05
2.62756e-05
2.62756e-05
2.62756e-05
2.62756e-05
2.62756e-05
2.62756e-05
2.62756e-05
2.62756e-05
2.62756e-05
2.62756e-05
2.62756e-05
2.62756e-05
2.62756e-05
2.62756e-05
2.62756e-05
2.62756e-05
2.62756e-05
2.62756e-05
2.62756e-05
2.62756e-05
2.62756e-05
2.62756e-05
2.62756e-05
2.62756e-05
2.62824e-05
2.63023e-05
2.63327e-05
2.63758e-05
2.6432e-05
2.64927e-05
2.65416e-05
2.6556e-05
2.65373e-05
2.64918e-05
2.64335e-05
2.63773e-05
2.63331e-05
2.63039e-05
2.62873e-05
2.62798e-05
2.62769e-05
2.62759e-05
2.62757e-05
2.62756e-05
2.62756e-05
2.62756e-05
2.62756e-05
2.62756e-05
2.62756e-05
2.62756e-05
2.62756e-05
2.62756e-05
2.62756e-05
2.62756e-05
2.62756e-05
2.62756e-05
2.62756e-05
2.62756e-05
2.62756e-05
2.62756e-05
2.62756e-05
2.62756e-05
2.62756e-05
2.62756e-05
2.62756e-05
2.62756e-05
2.62756e-05
2.62756e-05
2.62756e-05
2.62756e-05
2.62756e-05
2.62756e-05
2.62756e-05
2.62756e-05
2.62771e-05
2.62811e-05
2.62859e-05
2.62913e-05
2.62968e-05
2.63019e-05
2.63055e-05
2.63059e-05
2.6303e-05
2.62977e-05
2.62915e-05
2.62858e-05
2.62814e-05
2.62785e-05
2.62768e-05
2.6276e-05
2.62757e-05
2.62756e-05
2.62756e-05
2.62756e-05
2.62756e-05
2.62756e-05
2.62756e-05
2.62756e-05
2.62756e-05
2.62756e-05
2.62756e-05
2.62756e-05
2.62756e-05
2.62756e-05
2.62756e-05
2.62756e-05
2.62756e-05
2.62756e-05
2.62756e-05
2.62756e-05
2.62756e-05
2.62756e-05
2.62756e-05
2.62756e-05
2.62756e-05
2.62756e-05
2.62756e-05
2.62756e-05
2.62756e-05
2.62756e-05
2.62756e-05
2.62756e-05
2.62756e-05
2.62756e-05
2.62758e-05
2.62763e-05
2.62769e-05
2.62774e-05
2.62777e-05
2.62779e-05
2.6278e-05
2.62779e-05
2.62776e-05
2.62771e-05
2.62767e-05
2.62763e-05
2.62759e-05
2.62758e-05
2.62756e-05
2.62756e-05
2.62756e-05
2.62756e-05
2.62756e-05
2.62756e-05
2.62756e-05
2.62756e-05
2.62756e-05
2.62756e-05
2.62756e-05
2.62756e-05
2.62756e-05
2.62756e-05
2.62756e-05
2.62756e-05
2.62756e-05
2.62756e-05
2.62756e-05
2.62756e-05
2.62756e-05
2.62756e-05
2.62756e-05
2.62756e-05
2.62756e-05
2.62756e-05
2.62756e-05
2.62756e-05
2.62756e-05
2.62756e-05
2.62756e-05
2.62756e-05
2.62756e-05
2.62756e-05
2.62756e-05
2.62756e-05
2.62756e-05
2.62756e-05
2.62756e-05
2.62757e-05
2.62757e-05
2.62757e-05
2.62757e-05
2.62756e-05
2.62756e-05
2.62756e-05
2.62756e-05
2.62756e-05
2.62756e-05
2.62756e-05
2.62756e-05
2.62756e-05
2.62756e-05
2.62756e-05
2.62756e-05
2.62756e-05
2.62756e-05
2.62756e-05
2.62756e-05
2.62756e-05
2.62756e-05
2.62756e-05
2.62756e-05
2.62756e-05
2.62756e-05
2.62756e-05
2.62756e-05
2.62756e-05
2.62756e-05
2.62756e-05
2.62756e-05
2.62756e-05
2.62756e-05
2.62756e-05
2.62756e-05
2.62756e-05
2.62756e-05
2.62756e-05
2.62756e-05
2.62756e-05
2.62756e-05
2.62756e-05
2.62756e-05
2.62756e-05
2.62756e-05
2.62756e-05
)
;

boundaryField
{
    AXIS
    {
        type            empty;
    }
    OUTLET
    {
        type            calculated;
        value           uniform 2.62756e-05;
    }
    COFLOW
    {
        type            calculated;
        value           uniform 2.62756e-05;
    }
    PILOT
    {
        type            calculated;
        value           uniform 0.000100126;
    }
    FUEL
    {
        type            calculated;
        value           uniform 2.61542e-05;
    }
    WALL
    {
        type            calculated;
        value           nonuniform List<scalar> 
50
(
2.62756e-05
2.62756e-05
2.62756e-05
2.62757e-05
2.62757e-05
2.62757e-05
2.62757e-05
2.62756e-05
2.62756e-05
2.62756e-05
2.62756e-05
2.62756e-05
2.62756e-05
2.62756e-05
2.62756e-05
2.62756e-05
2.62756e-05
2.62756e-05
2.62756e-05
2.62756e-05
2.62756e-05
2.62756e-05
2.62756e-05
2.62756e-05
2.62756e-05
2.62756e-05
2.62756e-05
2.62756e-05
2.62756e-05
2.62756e-05
2.62756e-05
2.62756e-05
2.62756e-05
2.62756e-05
2.62756e-05
2.62756e-05
2.62756e-05
2.62756e-05
2.62756e-05
2.62756e-05
2.62756e-05
2.62756e-05
2.62756e-05
2.62756e-05
2.62756e-05
2.62756e-05
2.62756e-05
2.62756e-05
2.62756e-05
2.62756e-05
)
;
    }
    front
    {
        type            wedge;
    }
    back
    {
        type            wedge;
    }
}


// ************************************************************************* //
