/*--------------------------------*- C++ -*----------------------------------*\
| =========                 |                                                 |
| \\      /  F ield         | OpenFOAM: The Open Source CFD Toolbox           |
|  \\    /   O peration     | Version:  2.4.x                                 |
|   \\  /    A nd           | Web:      www.OpenFOAM.org                      |
|    \\/     M anipulation  |                                                 |
\*---------------------------------------------------------------------------*/
FoamFile
{
    version     2.0;
    format      ascii;
    class       volScalarField;
    location    "0.01";
    object      varZ;
}
// * * * * * * * * * * * * * * * * * * * * * * * * * * * * * * * * * * * * * //

dimensions      [0 0 0 0 0 0 0];

internalField   nonuniform List<scalar> 
1250
(
0.00127486
0.00532528
0.012289
0.0224157
0.0380596
0.065716
0.112515
0.150054
0.146001
0.116727
0.0790465
0.0501705
0.0308303
0.0186348
0.011146
0.00655741
0.0037235
0.00193496
0.000809063
0.000239769
5.51383e-05
1.15836e-05
2.26934e-06
4.01873e-07
6.38294e-08
9.12824e-09
1.1821e-09
1.39371e-10
1.50333e-11
1.48963e-12
1.36053e-13
1.14883e-14
8.99392e-16
6.54479e-17
4.43618e-18
2.80524e-19
1.65738e-20
9.16294e-22
4.74759e-23
2.30799e-24
1.0538e-25
4.52459e-27
1.82883e-28
6.96578e-30
2.50228e-31
8.48575e-33
2.71976e-34
8.24939e-36
2.37029e-37
6.41708e-39
0.00141793
0.00591109
0.0135779
0.0246148
0.041524
0.0707505
0.117398
0.151346
0.145352
0.115076
0.0779077
0.0495105
0.0304709
0.018445
0.0110462
0.00650466
0.00369525
0.00191945
0.00080107
0.000236885
5.44444e-05
1.14422e-05
2.24209e-06
3.97104e-07
6.30888e-08
9.02618e-09
1.16956e-09
1.37989e-10
1.48959e-11
1.47728e-12
1.35048e-13
1.14141e-14
8.94454e-16
6.51546e-17
4.42096e-18
2.79869e-19
1.65542e-20
9.16323e-22
4.75361e-23
2.31384e-24
1.05785e-25
4.54801e-27
1.84076e-28
7.02082e-30
2.52561e-31
8.57712e-33
2.75292e-34
8.36142e-36
2.40567e-37
6.51922e-39
0.00184578
0.00762892
0.0172786
0.0306932
0.050379
0.0825344
0.127541
0.153406
0.143729
0.111136
0.0753512
0.0480237
0.0296555
0.018011
0.010816
0.00638198
0.00362868
0.00188211
0.00078122
0.00022946
5.26167e-05
1.1062e-05
2.16701e-06
3.83545e-07
6.09022e-08
8.71112e-09
1.12877e-09
1.33207e-10
1.43852e-11
1.4273e-12
1.30545e-13
1.10395e-14
8.65608e-16
6.30942e-17
4.28416e-18
2.7141e-19
1.60667e-20
8.90079e-22
4.62143e-23
2.25148e-24
1.03029e-25
4.43369e-27
1.79623e-28
6.858e-30
2.46965e-31
8.3959e-33
2.69759e-34
8.20206e-36
2.36234e-37
6.4077e-39
0.00306438
0.0121433
0.0262749
0.0438127
0.0669567
0.101303
0.140417
0.154529
0.139799
0.105512
0.0715839
0.0458063
0.0284297
0.0173537
0.0104647
0.0061933
0.00352538
0.00182354
0.000749943
0.000217863
4.97815e-05
1.04692e-05
2.04912e-06
3.62127e-07
5.74231e-08
8.20562e-09
1.06267e-09
1.25376e-10
1.35387e-11
1.34338e-12
1.22881e-13
1.0393e-14
8.15087e-16
5.94292e-17
4.03677e-18
2.55843e-19
1.51521e-20
8.39842e-22
4.3629e-23
2.12672e-24
9.73783e-26
4.19319e-27
1.69994e-28
6.49508e-30
2.34074e-31
7.9639e-33
2.56086e-34
7.79278e-36
2.24638e-37
6.09827e-39
0.0081227
0.0258813
0.0480386
0.0689925
0.093259
0.124717
0.151768
0.153092
0.13288
0.0984884
0.0668246
0.0429906
0.0268631
0.016507
0.0100088
0.0059466
0.00338929
0.00174587
0.000708679
0.000202881
4.61637e-05
9.71217e-06
1.89837e-06
3.34754e-07
5.29785e-08
7.55944e-09
9.78057e-10
1.15329e-10
1.24501e-11
1.23517e-12
1.12977e-13
9.55566e-15
7.49513e-16
5.46601e-17
3.71393e-18
2.35468e-19
1.39515e-20
7.73674e-22
4.02131e-23
1.96134e-24
8.98619e-26
3.8721e-27
1.5709e-28
6.00682e-30
2.16661e-31
7.37799e-33
2.37466e-34
7.23309e-36
2.08712e-37
5.6715e-39
0.049368
0.0705006
0.0893464
0.10591
0.124635
0.145675
0.156734
0.148434
0.12289
0.0901913
0.0613147
0.0397312
0.025038
0.0155118
0.00946804
0.00565171
0.00322527
0.00165171
0.000659114
0.000185359
4.19905e-05
8.8385e-06
1.7244e-06
3.03231e-07
4.7871e-08
6.81778e-09
8.80963e-10
1.03796e-10
1.11995e-11
1.11075e-12
1.01582e-13
8.59177e-15
6.73991e-16
4.91636e-17
3.34152e-18
2.11943e-19
1.25638e-20
6.97107e-22
3.62559e-23
1.76958e-24
8.1137e-26
3.49892e-27
1.42076e-28
5.43794e-30
1.96344e-31
6.69344e-33
2.15681e-34
6.57725e-36
1.90017e-37
5.1697e-39
0.0732672
0.112655
0.128244
0.138414
0.148142
0.155844
0.153748
0.138525
0.110948
0.0810284
0.0553476
0.0361947
0.0230423
0.0144124
0.00886441
0.00531938
0.0030388
0.00154397
0.000603141
0.000166199
3.74944e-05
7.89632e-06
1.53689e-06
2.69357e-07
4.23988e-08
6.02469e-09
7.77233e-10
9.14766e-11
9.86336e-12
9.77806e-13
8.94025e-14
7.56132e-15
5.93232e-16
4.32839e-17
2.94294e-18
1.86746e-19
1.10764e-20
6.1498e-22
3.20083e-23
1.56357e-24
7.17553e-26
3.0973e-27
1.259e-28
4.82425e-30
1.74396e-31
5.95294e-33
1.92084e-34
5.8659e-36
1.69711e-37
4.62384e-39
0.0345621
0.11794
0.141538
0.150214
0.153865
0.152615
0.143904
0.12415
0.0979256
0.0714982
0.0492168
0.0325435
0.0209628
0.0132526
0.00822045
0.00496102
0.00283566
0.00142583
0.000542861
0.000146333
3.29035e-05
6.93292e-06
1.34542e-06
2.34904e-07
3.68534e-08
5.2232e-09
6.72576e-10
7.90582e-11
8.51715e-12
8.43901e-13
7.71391e-14
6.52402e-15
5.11946e-16
3.73655e-17
2.54166e-18
1.61373e-19
9.578e-21
5.32209e-22
2.77251e-23
1.3557e-24
6.22834e-26
2.69157e-27
1.09545e-28
4.20318e-30
1.5216e-31
5.20196e-33
1.68127e-34
5.14298e-36
1.49052e-37
4.06796e-39
0.0202424
0.0961188
0.129046
0.140874
0.143477
0.139371
0.127331
0.107822
0.0846068
0.0620734
0.0431831
0.0289247
0.0188793
0.0120743
0.00755826
0.00458799
0.00262167
0.00130069
0.000480566
0.00012667
2.84257e-05
5.99194e-06
1.15888e-06
2.01505e-07
3.1503e-08
4.45278e-09
5.72239e-10
6.71741e-11
7.2307e-12
7.16096e-13
6.54472e-14
5.53601e-15
4.34581e-16
3.17361e-17
2.16017e-18
1.37259e-19
8.1544e-21
4.53584e-22
2.3657e-23
1.15828e-24
5.32879e-26
2.30625e-27
9.40114e-29
3.61324e-30
1.31038e-31
4.48842e-33
1.45359e-34
4.45579e-36
1.29412e-37
3.53945e-39
0.0140881
0.0685573
0.102998
0.118305
0.122521
0.119052
0.108132
0.0911821
0.0717659
0.0531585
0.0374642
0.0254649
0.0168595
0.0109143
0.00689815
0.00421108
0.00240268
0.00117229
0.000418702
0.000108043
2.42397e-05
5.11141e-06
9.85041e-07
1.70582e-07
2.65791e-08
3.74735e-09
4.80736e-10
5.63714e-11
6.06454e-12
6.00535e-13
5.49001e-14
4.64663e-15
3.65075e-16
2.66878e-17
1.81864e-18
1.15708e-19
6.88402e-21
3.83525e-22
2.00373e-23
9.82871e-25
4.53072e-26
1.96492e-27
8.02723e-29
3.09229e-30
1.12418e-31
3.86052e-33
1.25357e-34
3.85313e-36
1.1222e-37
3.0778e-39
0.00324303
0.0421022
0.0747414
0.0916767
0.0980681
0.0965244
0.0884236
0.0750234
0.0596477
0.0447845
0.0320596
0.0221562
0.0148962
0.00976934
0.00623737
0.00382833
0.00217751
0.00104042
0.000357805
9.05881e-05
2.03598e-05
4.2947e-06
8.24739e-07
1.42292e-07
2.21079e-08
3.1109e-09
3.98637e-10
4.67249e-11
5.02766e-12
4.98197e-13
4.55954e-14
3.86483e-15
3.04188e-16
2.22802e-17
1.52146e-18
9.70176e-20
5.78591e-21
3.23168e-22
1.69296e-23
8.328e-25
3.85038e-26
1.67504e-27
6.86509e-29
2.65353e-30
9.68078e-32
3.33663e-33
1.08752e-34
3.35546e-36
9.81044e-38
2.70095e-39
0.00177705
0.0245359
0.0501313
0.0659176
0.073446
0.0738987
0.0689659
0.059416
0.0480174
0.036697
0.0267831
0.0188701
0.0129066
0.00858803
0.00554359
0.00341988
0.00193386
0.000898188
0.0002956
7.3607e-05
1.66058e-05
3.50301e-06
6.70203e-07
1.15216e-07
1.78559e-08
2.50888e-09
3.21314e-10
3.76709e-11
4.05725e-12
4.02656e-13
3.69264e-14
3.13771e-15
2.47639e-16
1.8192e-17
1.24618e-18
7.97266e-20
4.77125e-21
2.67466e-22
1.40649e-23
6.94621e-25
3.22473e-26
1.40884e-27
5.79959e-29
2.25199e-30
8.25507e-32
2.85917e-33
9.36544e-35
2.90416e-36
8.53416e-38
2.36133e-39
0.00113499
0.0146044
0.0318099
0.044247
0.0513795
0.0532431
0.0508532
0.044869
0.0370585
0.0289659
0.0216397
0.0155857
0.0108674
0.00735007
0.00480008
0.002973
0.00166237
0.000740995
0.000231561
5.69204e-05
1.29085e-05
2.71998e-06
5.17998e-07
8.8686e-08
1.37064e-08
1.92286e-09
2.46134e-10
2.88688e-11
3.11309e-12
3.09551e-13
2.84593e-14
2.42541e-15
1.92051e-16
1.41581e-17
9.73464e-19
6.25246e-20
3.75719e-21
2.11524e-22
1.11728e-23
5.54365e-25
2.5861e-26
1.1355e-27
4.6986e-29
1.83429e-30
6.76141e-32
2.35523e-33
7.75951e-35
2.42027e-36
7.15417e-38
1.99098e-39
0.000727228
0.00876909
0.0194393
0.0280587
0.0337727
0.0361234
0.0354002
0.0321723
0.0272903
0.0219126
0.0168096
0.0124022
0.00883511
0.00608204
0.00401726
0.00249014
0.00136282
0.000571752
0.000168689
4.11909e-05
9.39103e-06
1.9717e-06
3.7319e-07
6.35679e-08
9.79023e-09
1.37066e-09
1.75295e-10
2.05633e-11
2.21989e-12
2.21154e-13
2.03839e-14
1.74243e-15
1.38434e-16
1.02424e-17
7.06979e-19
4.55965e-20
2.75184e-21
1.55624e-22
8.25874e-24
4.11813e-25
1.93107e-26
8.52445e-28
3.54693e-29
1.39264e-30
5.16397e-32
1.8098e-33
5.99974e-35
1.88318e-36
5.60191e-38
1.56871e-39
0.000454617
0.00519344
0.0115155
0.0169805
0.0210127
0.0231489
0.0233051
0.0218634
0.0191157
0.0158102
0.0124756
0.0094473
0.00688707
0.00482539
0.00321634
0.00198047
0.00104089
0.00040031
0.000111809
2.73453e-05
6.25164e-06
1.303e-06
2.44561e-07
4.13852e-08
6.3449e-09
8.85753e-10
1.13108e-10
1.32626e-11
1.43261e-12
1.42932e-13
1.32027e-14
1.13159e-15
9.01758e-17
6.69416e-18
4.63756e-19
3.00288e-20
1.81995e-21
1.03381e-22
5.51192e-24
2.76197e-25
1.30183e-26
5.77779e-28
2.41755e-29
9.54718e-31
3.56142e-32
1.25591e-33
4.18993e-35
1.32357e-36
3.96278e-38
1.11679e-39
0.000272264
0.00296924
0.00659954
0.00985936
0.0124575
0.0140771
0.0145681
0.0140628
0.0127014
0.0108278
0.00879815
0.00684534
0.00510379
0.0036306
0.00242645
0.00146081
0.000711232
0.000244845
6.59364e-05
1.62507e-05
3.70297e-06
7.62777e-07
1.41537e-07
2.37531e-08
3.62035e-09
5.03418e-10
6.41293e-11
7.51066e-12
8.11107e-13
8.09792e-14
7.49047e-15
6.4324e-16
5.13813e-17
3.82489e-18
2.6582e-19
1.72723e-20
1.05078e-21
5.99311e-23
3.20911e-24
1.61539e-25
7.65089e-27
3.41305e-28
1.43579e-29
5.70181e-31
2.13928e-32
7.58915e-34
2.54742e-35
8.0975e-37
2.43978e-38
6.91889e-40
0.000154845
0.00160869
0.00363612
0.00549641
0.0070584
0.00814857
0.00864935
0.00856487
0.00798566
0.00701338
0.00586328
0.00467693
0.00355251
0.00254648
0.00167913
0.00095438
0.00040697
0.000126334
3.38004e-05
8.37461e-06
1.88653e-06
3.82495e-07
6.99825e-08
1.16154e-08
1.75708e-09
2.43059e-10
3.08531e-11
3.60536e-12
3.88915e-13
3.88149e-14
3.59151e-15
3.08715e-16
2.46972e-17
1.84217e-18
1.28338e-19
8.36252e-21
5.10349e-22
2.92088e-23
1.56987e-24
7.93378e-26
3.77385e-27
1.69135e-28
7.15006e-30
2.854e-31
1.07651e-32
3.84016e-34
1.2964e-35
4.14502e-37
1.25633e-38
3.58384e-40
8.19386e-05
0.000797593
0.00189971
0.00292795
0.00382138
0.00449403
0.0048762
0.00494077
0.00473241
0.00426826
0.00365314
0.00296635
0.0022704
0.00160747
0.0010064
0.000500476
0.000181694
5.39404e-05
1.45948e-05
3.59356e-06
7.95056e-07
1.58274e-07
2.85087e-08
4.67175e-09
6.99562e-10
9.60716e-11
1.21338e-11
1.41288e-12
1.52042e-13
1.51527e-14
1.40117e-15
1.20437e-16
9.64014e-18
7.19821e-19
5.02265e-20
3.27972e-21
2.00668e-22
1.15183e-23
6.21043e-25
3.14935e-26
1.50361e-27
6.76594e-29
2.87251e-30
1.15175e-31
4.36487e-33
1.56477e-34
5.30977e-36
1.70675e-37
5.2011e-39
1.4917e-40
3.92653e-05
0.000331231
0.000895409
0.00144762
0.00193995
0.00232924
0.00257753
0.00266334
0.00259849
0.00238961
0.00206844
0.00167913
0.00125729
0.000833942
0.000450828
0.000185748
6.23561e-05
1.87177e-05
5.07221e-06
1.2285e-06
2.66442e-07
5.20825e-08
9.23488e-09
1.49331e-09
2.21138e-10
3.00887e-11
3.77189e-12
4.3674e-13
4.68057e-14
4.65119e-15
4.29276e-16
3.68599e-17
2.94939e-18
2.20285e-19
1.53836e-20
1.0059e-21
6.16544e-23
3.5467e-24
1.91725e-25
9.75041e-27
4.66992e-28
2.10861e-29
8.98519e-31
3.61678e-32
1.37635e-33
4.95555e-35
1.68926e-36
5.4555e-38
1.6705e-39
4.81413e-41
1.64985e-05
0.00010332
0.000317954
0.000591264
0.000849494
0.0010612
0.0012039
0.00126306
0.00124066
0.00114011
0.000965285
0.000743398
0.000501487
0.000281406
0.000128177
4.92439e-05
1.67195e-05
5.04697e-06
1.34952e-06
3.20934e-07
6.8384e-08
1.31538e-08
2.2989e-09
3.67001e-10
5.37384e-11
7.24069e-12
9.00152e-13
1.0349e-13
1.1026e-14
1.09058e-15
1.00311e-16
8.59334e-18
6.86675e-19
5.12601e-20
3.58015e-21
2.34232e-22
1.43724e-23
8.2814e-25
4.48583e-26
2.28664e-27
1.09803e-28
4.97228e-30
2.12552e-31
8.58514e-33
3.27881e-34
1.18501e-35
4.05558e-37
1.31524e-38
4.04477e-40
1.17069e-41
6.29862e-06
2.90122e-05
7.65281e-05
0.000149853
0.0002449
0.000333109
0.000394893
0.000418137
0.000406056
0.000357859
0.000278935
0.000191316
0.000113311
5.77894e-05
2.56266e-05
9.95168e-06
3.38163e-06
1.00754e-06
2.65016e-07
6.20399e-08
1.30289e-08
2.4728e-09
4.26879e-10
6.73846e-11
9.76695e-12
1.30404e-12
1.60798e-13
1.83539e-14
1.94332e-15
1.91223e-16
1.75151e-17
1.49563e-18
1.19243e-19
8.88924e-21
6.20396e-22
4.0582e-23
2.49102e-24
1.43656e-25
7.79198e-27
3.97902e-28
1.91472e-29
8.69078e-31
3.72445e-32
1.50844e-33
5.7781e-35
2.09489e-36
7.19368e-38
2.34136e-39
7.22793e-41
2.10007e-42
2.10062e-06
8.14271e-06
1.72882e-05
2.9765e-05
4.52446e-05
6.11255e-05
7.36539e-05
7.69571e-05
7.22169e-05
6.08083e-05
4.55394e-05
3.0219e-05
1.76833e-05
9.00173e-06
3.91468e-06
1.48931e-06
4.95217e-07
1.44677e-07
3.74186e-08
8.6331e-09
1.7897e-09
3.35729e-10
5.73494e-11
8.96744e-12
1.28872e-12
1.7075e-13
2.09111e-14
2.37237e-15
2.4983e-16
2.44671e-17
2.23231e-18
1.90032e-19
1.51143e-20
1.12468e-21
7.83978e-23
5.12535e-24
3.146e-25
1.81492e-26
9.85119e-28
5.03606e-29
2.42697e-30
1.10357e-31
4.73907e-33
1.9237e-34
7.38663e-36
2.68508e-37
9.24632e-39
3.01841e-40
9.34697e-42
2.72416e-43
5.12991e-07
1.87416e-06
3.52159e-06
5.30244e-06
7.05849e-06
8.56585e-06
9.54107e-06
9.50902e-06
8.61064e-06
7.0413e-06
5.17427e-06
3.3971e-06
1.98257e-06
1.0178e-06
4.50514e-07
1.69738e-07
5.3525e-08
1.50321e-08
3.7771e-09
8.52312e-10
1.73592e-10
3.2091e-11
5.41299e-12
8.37007e-13
1.19095e-13
1.56405e-14
1.9006e-15
2.14139e-16
2.24095e-17
2.1822e-18
1.98078e-19
1.67843e-20
1.32955e-21
9.85988e-23
6.85396e-24
4.47071e-25
2.73937e-26
1.57845e-27
8.56054e-29
4.37368e-30
2.10721e-31
9.58307e-33
4.11722e-34
1.67248e-35
6.42808e-37
2.33937e-38
8.06725e-40
2.63791e-41
8.18429e-43
2.38906e-44
6.91426e-08
2.77804e-07
5.00672e-07
6.83949e-07
8.02697e-07
8.60603e-07
8.60653e-07
8.02786e-07
6.9255e-07
5.44996e-07
3.87321e-07
2.46791e-07
1.40245e-07
7.06869e-08
3.12271e-08
1.1982e-08
4.00957e-09
1.14904e-09
2.79048e-10
5.80008e-11
1.09096e-11
1.90598e-12
3.08374e-13
4.61804e-14
6.40422e-15
8.23334e-16
9.82596e-17
1.08983e-17
1.12446e-18
1.08067e-19
9.68967e-21
8.11867e-22
6.36495e-23
4.6759e-24
3.22325e-25
2.08701e-26
1.27042e-27
7.27633e-29
3.92436e-30
1.99485e-31
9.56658e-33
4.33208e-34
1.85397e-35
7.50479e-37
2.87539e-38
1.04351e-39
3.58943e-41
1.17116e-42
3.62771e-44
1.05521e-45
1.52954e-09
1.79364e-08
2.94182e-08
3.52549e-08
3.63884e-08
3.48812e-08
3.20239e-08
2.81522e-08
2.32801e-08
1.76952e-08
1.2145e-08
7.46367e-09
4.09553e-09
1.99943e-09
8.60428e-10
3.23646e-10
1.0635e-10
3.03745e-11
7.51887e-12
1.62278e-12
3.12454e-13
5.47648e-14
8.82691e-15
1.31576e-15
1.81973e-16
2.34015e-17
2.80345e-18
3.14085e-19
3.22175e-20
2.97158e-21
2.4726e-22
1.92182e-23
1.44255e-24
1.03608e-25
6.8829e-27
4.18444e-28
2.39382e-29
1.32112e-30
6.92032e-32
3.34363e-33
1.49962e-34
6.46718e-36
2.703e-37
1.05996e-38
3.80889e-40
1.3209e-41
4.40939e-43
1.40988e-44
4.30702e-46
1.23165e-47
)
;

boundaryField
{
    AXIS
    {
        type            empty;
    }
    OUTLET
    {
        type            zeroGradient;
    }
    COFLOW
    {
        type            fixedValue;
        value           uniform 0;
    }
    PILOT
    {
        type            fixedValue;
        value           uniform 0;
    }
    FUEL
    {
        type            fixedValue;
        value           uniform 0;
    }
    WALL
    {
        type            zeroGradient;
    }
    front
    {
        type            wedge;
    }
    back
    {
        type            wedge;
    }
}


// ************************************************************************* //
