/*--------------------------------*- C++ -*----------------------------------*\
| =========                 |                                                 |
| \\      /  F ield         | OpenFOAM: The Open Source CFD Toolbox           |
|  \\    /   O peration     | Version:  2.4.x                                 |
|   \\  /    A nd           | Web:      www.OpenFOAM.org                      |
|    \\/     M anipulation  |                                                 |
\*---------------------------------------------------------------------------*/
FoamFile
{
    version     2.0;
    format      ascii;
    class       volScalarField;
    location    "0.01";
    object      Z;
}
// * * * * * * * * * * * * * * * * * * * * * * * * * * * * * * * * * * * * * //

dimensions      [0 0 0 0 0 0 0];

internalField   nonuniform List<scalar> 
1250
(
0.997186
0.98863
0.975971
0.958849
0.9334
0.88666
0.785936
0.609838
0.427314
0.286417
0.189217
0.124687
0.0827807
0.0553122
0.0369266
0.0242243
0.0151818
0.00854506
0.00374637
0.00110323
0.000240779
4.74183e-05
8.74369e-06
1.46735e-06
2.22255e-07
3.05219e-08
3.80507e-09
4.33667e-10
4.53733e-11
4.37397e-12
3.8965e-13
3.21637e-14
2.46633e-15
1.76087e-16
1.17276e-17
7.29639e-19
4.24612e-20
2.32175e-21
1.18598e-22
5.69273e-24
2.56854e-25
1.09058e-26
4.36192e-28
1.64494e-29
5.85354e-31
1.96735e-32
6.252e-34
1.88098e-35
5.36294e-37
1.44126e-38
0.996775
0.987189
0.973418
0.954855
0.927248
0.877232
0.771784
0.596962
0.418917
0.281747
0.186629
0.123292
0.0820221
0.0548904
0.0366834
0.0240791
0.0150914
0.00848637
0.00371133
0.00108985
0.000237665
4.68245e-05
8.63671e-06
1.44972e-06
2.19658e-07
3.01815e-08
3.76501e-09
4.29403e-10
4.4963e-11
4.3382e-12
3.86821e-13
3.19606e-14
2.45317e-15
1.75326e-16
1.16894e-17
7.28061e-19
4.24186e-20
2.32277e-21
1.18806e-22
5.70926e-24
2.57916e-25
1.09649e-26
4.39136e-28
1.65829e-29
5.9093e-31
1.98892e-32
6.32941e-34
1.90687e-35
5.44394e-37
1.46445e-38
0.995493
0.982993
0.966145
0.94376
0.911152
0.853641
0.739371
0.568544
0.400608
0.271395
0.180844
0.120141
0.0802888
0.0539164
0.0361154
0.0237354
0.0148741
0.00834222
0.00362301
0.00105507
0.000229387
4.52098e-05
8.33812e-06
1.39892e-06
2.11883e-07
2.91108e-08
3.63196e-09
4.14364e-10
4.3408e-11
4.19039e-12
3.73853e-13
3.09075e-14
2.37383e-15
1.69772e-16
1.13274e-17
7.06056e-19
4.11702e-20
2.2566e-21
1.15527e-22
5.55654e-24
2.51244e-25
1.06913e-26
4.2859e-28
1.62013e-29
5.77945e-31
1.94727e-32
6.20344e-34
1.87091e-35
5.34702e-37
1.43971e-38
0.991527
0.97221
0.948533
0.919253
0.87924
0.810876
0.689109
0.527439
0.374376
0.256244
0.172316
0.115435
0.0776692
0.0524276
0.0352384
0.0231994
0.0145314
0.00811278
0.00348249
0.00100051
0.000216514
4.26863e-05
7.86817e-06
1.31844e-06
1.99473e-07
2.73862e-08
3.41552e-09
3.89633e-10
4.08204e-11
3.94125e-12
3.51698e-13
2.90827e-14
2.23433e-15
1.59852e-16
1.067e-17
6.65387e-19
3.88185e-20
2.12898e-21
1.09058e-22
5.24847e-24
2.37462e-25
1.01114e-26
4.05625e-28
1.53446e-29
5.47817e-31
1.84724e-32
5.88964e-34
1.77777e-35
5.08526e-37
1.37039e-38
0.973458
0.938459
0.90441
0.868533
0.82192
0.744841
0.623193
0.47713
0.342522
0.237495
0.161646
0.109466
0.074305
0.0504935
0.0340876
0.02249
0.0140742
0.00780502
0.00329583
0.000929916
0.000200109
3.94699e-05
7.26827e-06
1.21572e-06
1.83634e-07
2.51827e-08
3.13851e-09
3.5791e-10
3.74927e-11
3.61998e-12
3.23057e-13
2.67186e-14
2.05318e-15
1.46938e-16
9.81173e-18
6.12133e-19
3.57294e-20
1.96071e-21
1.00498e-22
4.83953e-24
2.19105e-25
9.3363e-27
3.74816e-28
1.41908e-29
5.07071e-31
1.71141e-32
5.46181e-34
1.65026e-35
4.72531e-37
1.27467e-38
0.802386
0.823834
0.807522
0.778164
0.73357
0.657597
0.547212
0.421821
0.307474
0.216475
0.14951
0.102574
0.070363
0.0481973
0.0327064
0.0216308
0.0135159
0.00742755
0.00307018
0.000847364
0.000181249
3.57719e-05
6.57834e-06
1.09779e-06
1.65479e-07
2.26588e-08
2.82119e-09
3.21547e-10
3.36744e-11
3.25099e-12
2.90135e-13
2.39993e-14
1.84469e-15
1.32063e-16
8.82212e-18
5.50667e-19
3.21602e-20
1.766e-21
9.05819e-23
4.36533e-24
1.97795e-25
8.43536e-27
3.38961e-28
1.28463e-29
4.5952e-31
1.55269e-32
4.96112e-34
1.50079e-35
4.30268e-37
1.1621e-38
0.517153
0.643131
0.663144
0.6544
0.623128
0.559636
0.468081
0.365787
0.27141
0.194489
0.136599
0.0951036
0.0660201
0.0456299
0.0311426
0.020648
0.0128718
0.00699014
0.00281372
0.000757214
0.000161027
3.18048e-05
5.83827e-06
9.71599e-07
1.46098e-07
1.99681e-08
2.48307e-09
2.82795e-10
2.96034e-11
2.85738e-12
2.55001e-13
2.10961e-14
1.62201e-15
1.16167e-16
7.76396e-18
4.8489e-19
2.83373e-20
1.55728e-21
7.99423e-23
3.85607e-24
1.74888e-25
7.46603e-27
3.00341e-28
1.13962e-29
4.0816e-31
1.381e-32
4.41882e-34
1.33868e-35
3.84361e-37
1.03964e-38
0.336008
0.464683
0.509366
0.521031
0.506494
0.462634
0.392187
0.312146
0.236253
0.17266
0.12352
0.087378
0.0614487
0.0428824
0.0294469
0.0195703
0.0121585
0.00650383
0.00253583
0.000663984
0.000140505
2.77745e-05
5.08695e-06
8.43888e-07
1.26544e-07
1.72591e-08
2.14306e-09
2.43845e-10
2.55123e-11
2.46185e-12
2.19697e-13
1.81789e-14
1.39823e-15
1.0019e-16
6.70006e-18
4.18731e-19
2.44905e-20
1.34712e-21
6.92226e-23
3.34262e-24
1.51777e-25
6.48737e-27
2.61316e-28
9.9293e-30
3.5615e-31
1.20695e-32
3.86845e-34
1.17398e-35
3.37671e-37
9.14955e-39
0.262945
0.316004
0.37095
0.399403
0.399154
0.373945
0.323569
0.263003
0.203412
0.151849
0.110764
0.0796795
0.0568076
0.0400427
0.0276704
0.0184271
0.0113937
0.00598118
0.00224709
0.000572072
0.000120641
2.38681e-05
4.35997e-06
7.20826e-07
1.07776e-07
1.46671e-08
1.8184e-09
2.06706e-10
2.16154e-11
2.08543e-12
1.86126e-13
1.54069e-14
1.18571e-15
8.5023e-17
5.69043e-18
3.55963e-19
2.08414e-20
1.14777e-21
5.90542e-23
2.85556e-24
1.29853e-25
5.55891e-27
2.24288e-28
8.53722e-30
3.06784e-31
1.04171e-32
3.3458e-34
1.01755e-35
2.93315e-37
7.96501e-39
0.173507
0.197696
0.259604
0.298374
0.309472
0.297304
0.264116
0.219617
0.173797
0.132659
0.0987048
0.0722464
0.0522315
0.0371904
0.0258622
0.017248
0.0105959
0.00543687
0.00195914
0.000485498
0.000102241
2.02456e-05
3.68797e-06
6.07693e-07
9.06125e-08
1.2307e-08
1.52381e-09
1.73098e-10
1.80973e-11
1.74634e-12
1.55945e-13
1.29194e-14
9.9533e-16
7.14583e-17
4.78889e-18
2.99999e-19
1.75925e-20
9.70529e-22
5.00255e-23
2.42365e-24
1.10437e-25
4.73786e-27
1.9159e-28
7.30987e-30
2.63337e-31
8.96533e-33
2.88735e-34
8.80566e-36
2.54553e-37
6.93206e-39
0.0161479
0.103078
0.175473
0.217868
0.235679
0.232505
0.212675
0.181314
0.147069
0.114876
0.0872561
0.0650295
0.0476876
0.0343084
0.0240084
0.0160227
0.00975852
0.00486945
0.00167493
0.00040497
8.536e-05
1.69202e-05
3.07403e-06
5.05042e-07
7.51404e-08
1.01918e-08
1.26109e-09
1.43252e-10
1.4985e-11
1.44745e-12
1.29435e-13
1.07416e-14
8.29194e-16
5.96584e-17
4.00714e-18
2.51628e-19
1.47934e-20
8.18313e-22
4.22965e-23
2.05513e-24
9.39288e-26
4.04235e-27
1.64004e-28
6.27889e-30
2.2701e-31
7.7574e-33
2.50787e-34
7.678e-36
2.22829e-37
6.09178e-39
0.00498659
0.0579644
0.11631
0.154592
0.17439
0.177193
0.166999
0.146502
0.122057
0.0977201
0.0759214
0.0576908
0.0429427
0.0312392
0.0219977
0.0146729
0.00882598
0.00424505
0.0013835
0.000327185
6.91908e-05
1.37282e-05
2.4873e-06
4.07535e-07
6.05243e-08
8.20268e-09
1.01493e-09
1.1537e-10
1.20844e-11
1.16946e-12
1.04821e-13
8.72259e-15
6.75348e-16
4.87434e-17
3.28483e-18
2.06986e-19
1.22129e-20
6.77974e-22
3.51821e-23
1.71602e-24
7.87604e-26
3.40438e-27
1.38745e-28
5.3368e-30
1.93887e-31
6.65856e-33
2.16353e-34
6.65761e-36
1.94213e-37
5.33641e-39
0.00287603
0.0358462
0.0767536
0.106911
0.12508
0.131104
0.127078
0.115094
0.0986316
0.0810987
0.0645722
0.050092
0.0378811
0.0278743
0.0197396
0.0131257
0.00774242
0.00353566
0.00108158
0.00025117
5.3397e-05
1.05962e-05
1.91327e-06
3.12518e-07
4.63237e-08
6.27321e-09
7.76267e-10
8.83222e-11
9.2669e-12
8.98886e-13
8.07989e-14
6.7456e-15
5.24134e-16
3.79714e-17
2.56897e-18
1.62544e-19
9.63172e-21
5.34592e-22
2.79544e-23
1.3708e-24
6.32473e-26
2.74828e-27
1.12607e-28
4.35531e-30
1.59129e-31
5.4967e-33
1.79654e-34
5.56117e-36
1.63199e-37
4.51059e-39
0.00196022
0.0234338
0.0507927
0.072612
0.0873772
0.0942644
0.0938197
0.0877273
0.0774199
0.0654605
0.0534544
0.0423468
0.0325644
0.0242254
0.0172132
0.0113508
0.00648327
0.00274806
0.000783477
0.000179936
3.8485e-05
7.62418e-06
1.37025e-06
2.22957e-07
3.29673e-08
4.45939e-09
5.51726e-10
6.28232e-11
6.60231e-12
6.41936e-13
5.78722e-14
4.84782e-15
3.78056e-16
2.74955e-17
1.86791e-18
1.187e-19
7.06551e-21
3.94363e-22
2.0754e-23
1.02214e-24
4.73844e-26
2.06949e-27
8.52514e-29
3.31592e-30
1.21871e-31
4.23551e-33
1.39301e-34
4.33942e-36
1.2816e-37
3.56443e-39
0.001369
0.0155822
0.0336284
0.0486745
0.0597357
0.0660121
0.0674053
0.0648282
0.0589378
0.0512145
0.0428573
0.0346594
0.027081
0.0203256
0.0144256
0.00933917
0.00505037
0.00192763
0.000513469
0.000117792
2.53052e-05
4.98815e-06
8.90896e-07
1.44244e-07
2.12592e-08
2.87069e-09
3.54943e-10
4.04292e-11
4.25415e-12
4.14473e-13
3.74653e-14
3.1481e-15
2.46339e-16
1.79814e-17
1.22639e-18
7.82629e-20
4.67919e-21
2.62424e-22
1.38844e-23
6.87388e-25
3.20354e-26
1.40679e-27
5.82799e-29
2.28011e-30
8.43094e-32
2.94845e-33
9.7592e-35
3.05983e-36
9.09592e-38
2.54606e-39
0.000936825
0.0102137
0.0220665
0.032177
0.0400516
0.0451233
0.0471431
0.046414
0.0433993
0.038664
0.0330956
0.0272728
0.0215817
0.0162592
0.0114188
0.00711778
0.00349795
0.00116983
0.000297221
6.86947e-05
1.47488e-05
2.88126e-06
5.10139e-07
8.20807e-08
1.20463e-08
1.62259e-09
2.00368e-10
2.28166e-11
2.40227e-12
2.3437e-13
2.12275e-14
1.78806e-15
1.40311e-16
1.02745e-17
7.03213e-19
4.5046e-20
2.7041e-21
1.5231e-22
8.09646e-24
4.02784e-25
1.88669e-26
8.3294e-28
3.46989e-29
1.36536e-30
5.07857e-32
1.78694e-33
5.95173e-35
1.87795e-36
5.61851e-38
1.58268e-39
0.000614785
0.00641256
0.0141341
0.0208191
0.0262286
0.0300242
0.031982
0.0321078
0.0307419
0.0279875
0.0244103
0.0203923
0.01623
0.0121406
0.00827006
0.0047673
0.00200001
0.000590793
0.000148327
3.45496e-05
7.36096e-06
1.42021e-06
2.48622e-07
3.96711e-08
5.79093e-09
7.77363e-10
9.57925e-11
1.08973e-11
1.14719e-12
1.11978e-13
1.0153e-14
8.56587e-16
6.73563e-17
4.94447e-18
3.39375e-19
2.18085e-20
1.31371e-21
7.42734e-23
3.96445e-24
1.98062e-25
9.31964e-27
4.13449e-28
1.73119e-29
6.84831e-31
2.56135e-32
9.064e-34
3.03672e-35
9.63937e-37
2.90149e-38
8.22253e-40
0.000371834
0.00365496
0.00858066
0.0129353
0.0165554
0.01924
0.0208301
0.0212665
0.0206971
0.0191597
0.0168944
0.0141634
0.0111737
0.00810062
0.00512053
0.00250984
0.000871427
0.000243254
6.18491e-05
1.4386e-05
3.02459e-06
5.75286e-07
9.94748e-08
1.57129e-08
2.2761e-09
3.04041e-10
3.73459e-11
4.23977e-12
4.45832e-13
4.35036e-14
3.9455e-15
3.33124e-16
2.62264e-17
1.92837e-18
1.32634e-19
8.54498e-21
5.16255e-22
2.92825e-23
1.56866e-24
7.86604e-26
3.71596e-27
1.65554e-28
6.96327e-30
2.76755e-31
1.0402e-32
3.69994e-34
1.24622e-35
3.97755e-37
1.20394e-38
3.43078e-40
0.000195087
0.00167181
0.00456759
0.0073153
0.0096688
0.0114805
0.0126347
0.0130703
0.012839
0.0119654
0.0105141
0.00865912
0.00654494
0.00433232
0.00229025
0.000901087
0.000284881
8.04867e-05
2.06224e-05
4.74821e-06
9.83946e-07
1.846e-07
3.15397e-08
4.9314e-09
7.08291e-10
9.3962e-11
1.14787e-11
1.29817e-12
1.36157e-13
1.32646e-14
1.20205e-15
1.0148e-16
7.99313e-18
5.88276e-19
4.052e-20
2.61545e-21
1.58369e-22
9.00628e-24
4.83949e-25
2.43454e-26
1.15407e-27
5.16071e-29
2.17915e-30
8.69695e-32
3.28302e-33
1.17308e-34
3.96998e-36
1.2733e-37
3.8733e-39
1.10922e-40
8.32341e-05
0.000529971
0.00168414
0.00320597
0.00462942
0.00577133
0.00652284
0.00682332
0.00669703
0.00615207
0.00519562
0.00396781
0.00262538
0.00142355
0.000617338
0.000224109
7.191e-05
2.05905e-05
5.24589e-06
1.19385e-06
2.44416e-07
4.53342e-08
7.66465e-09
1.18709e-09
1.69068e-10
2.22676e-11
2.70336e-12
3.04117e-13
3.17601e-14
3.08403e-15
2.78869e-16
2.35134e-17
1.85122e-18
1.36283e-19
9.39466e-21
6.0712e-22
3.68216e-23
2.09844e-24
1.13052e-25
5.70261e-27
2.71123e-28
1.21627e-29
5.15358e-31
2.06438e-32
7.82284e-34
2.80645e-35
9.53757e-37
3.07241e-38
9.38828e-40
2.70069e-41
3.06403e-05
0.000142656
0.000382636
0.00077129
0.00129345
0.00180082
0.00215254
0.002275
0.00219631
0.0019103
0.0014597
0.000973076
0.000555106
0.000270764
0.000114311
4.22525e-05
1.36926e-05
3.90224e-06
9.85033e-07
2.22024e-07
4.50326e-08
8.27811e-09
1.38768e-09
2.13212e-10
3.01439e-11
3.94433e-12
4.75966e-13
5.32565e-14
5.5361e-15
5.35552e-16
4.8283e-17
4.06233e-18
3.19411e-19
2.35021e-20
1.62015e-21
1.0475e-22
6.35921e-24
3.62912e-25
1.95899e-26
9.90338e-28
4.72009e-29
2.12314e-30
9.02168e-32
3.62476e-33
1.37802e-34
4.96055e-36
1.69189e-37
5.47108e-39
1.6785e-40
4.84801e-42
9.45151e-06
3.6788e-05
7.86123e-05
0.00013743
0.000213603
0.000295263
0.000360843
0.00037991
0.00035481
0.000293967
0.000215602
0.000139489
7.93269e-05
3.9287e-05
1.63759e-05
5.95913e-06
1.90162e-06
5.34664e-07
1.33447e-07
2.97904e-08
5.99053e-09
1.09258e-09
1.81843e-10
2.77578e-11
3.90118e-12
5.07795e-13
6.09789e-14
6.79345e-15
7.0345e-16
6.78206e-17
6.09774e-18
5.11996e-19
4.0198e-20
2.95483e-21
2.03599e-22
1.31651e-23
7.99701e-25
4.56794e-26
2.46908e-27
1.25013e-28
5.9696e-30
2.69102e-31
1.14621e-32
4.6171e-34
1.76006e-35
6.35407e-37
2.17382e-38
7.05212e-40
2.17075e-41
6.29045e-43
2.12487e-06
7.77387e-06
1.45485e-05
2.20217e-05
2.97237e-05
3.67379e-05
4.1592e-05
4.1931e-05
3.79638e-05
3.07644e-05
2.22535e-05
1.43242e-05
8.15307e-06
4.09795e-06
1.77188e-06
6.49708e-07
1.98679e-07
5.36642e-08
1.3033e-08
2.8526e-09
5.6511e-10
1.01848e-10
1.67817e-11
2.53935e-12
3.54128e-13
4.57849e-14
5.46505e-15
6.05593e-16
6.24027e-17
5.98959e-18
5.36364e-19
4.48731e-20
3.51196e-21
2.57485e-22
1.77054e-23
1.14302e-24
6.93512e-26
3.95877e-27
2.13936e-28
1.08303e-29
5.17241e-31
2.33286e-32
9.94476e-34
4.01013e-35
1.5306e-36
5.53373e-38
1.89636e-39
6.16379e-41
1.90137e-42
5.51969e-44
2.66311e-07
1.067e-06
1.90674e-06
2.60565e-06
3.08756e-06
3.36636e-06
3.43949e-06
3.24476e-06
2.80854e-06
2.2002e-06
1.54667e-06
9.70789e-07
5.41698e-07
2.68018e-07
1.16038e-07
4.35726e-08
1.42066e-08
3.98942e-09
9.4537e-10
1.90492e-10
3.48832e-11
5.95049e-12
9.4211e-13
1.38305e-13
1.88298e-14
2.38713e-15
2.80222e-16
3.06064e-17
3.11298e-18
2.9519e-19
2.61359e-20
2.1639e-21
1.6774e-22
1.21909e-23
8.31785e-25
5.33326e-26
3.21631e-27
1.8258e-28
9.817e-30
4.94631e-31
2.35217e-32
1.05671e-33
4.4886e-35
1.80421e-36
6.86683e-38
2.47636e-39
8.46691e-41
2.74669e-42
8.46087e-44
2.44797e-45
5.95023e-09
7.0507e-08
1.14536e-07
1.3664e-07
1.41729e-07
1.37694e-07
1.28408e-07
1.13966e-07
9.4471e-08
7.15108e-08
4.8613e-08
2.94795e-08
1.5923e-08
7.64745e-09
3.23245e-09
1.19384e-09
3.84429e-10
1.07765e-10
2.61692e-11
5.53164e-12
1.04371e-12
1.79409e-13
2.83851e-14
4.15726e-15
5.6546e-16
7.15971e-17
8.48528e-18
9.22593e-19
9.02325e-20
7.94986e-21
6.52136e-22
5.15477e-23
3.90341e-24
2.7385e-25
1.75446e-26
1.0536e-27
6.10755e-29
3.3756e-30
1.73204e-31
8.20688e-33
3.67831e-34
1.5922e-35
6.57601e-37
2.52743e-38
9.10708e-40
3.1693e-41
1.05825e-42
3.3776e-44
1.02856e-45
2.92945e-47
)
;

boundaryField
{
    AXIS
    {
        type            empty;
    }
    OUTLET
    {
        type            inletOutlet;
        inletValue      uniform 0;
        value           nonuniform List<scalar> 
25
(
1.44126e-38
1.46445e-38
1.43971e-38
1.37039e-38
1.27467e-38
1.1621e-38
1.03964e-38
9.14955e-39
7.96501e-39
6.93206e-39
6.09178e-39
5.33641e-39
4.51059e-39
3.56443e-39
2.54606e-39
1.58268e-39
8.22253e-40
3.43078e-40
1.10922e-40
2.70069e-41
4.84801e-42
6.29045e-43
5.51969e-44
2.44797e-45
2.92945e-47
)
;
    }
    COFLOW
    {
        type            fixedValue;
        value           uniform 0;
    }
    PILOT
    {
        type            fixedValue;
        value           uniform 0.271;
    }
    FUEL
    {
        type            fixedValue;
        value           uniform 1;
    }
    WALL
    {
        type            zeroGradient;
    }
    front
    {
        type            wedge;
    }
    back
    {
        type            wedge;
    }
}


// ************************************************************************* //
