/*--------------------------------*- C++ -*----------------------------------*\
| =========                 |                                                 |
| \\      /  F ield         | OpenFOAM: The Open Source CFD Toolbox           |
|  \\    /   O peration     | Version:  2.4.x                                 |
|   \\  /    A nd           | Web:      www.OpenFOAM.org                      |
|    \\/     M anipulation  |                                                 |
\*---------------------------------------------------------------------------*/
FoamFile
{
    version     2.0;
    format      ascii;
    class       volScalarField;
    location    "0.07";
    object      chi;
}
// * * * * * * * * * * * * * * * * * * * * * * * * * * * * * * * * * * * * * //

dimensions      [0 0 -1 0 0 0 0];

internalField   nonuniform List<scalar> 
1250
(
0.0306919
0.210803
0.657939
1.50545
2.83084
4.54503
6.47538
8.44707
10.2249
11.753
13.0158
13.8685
14.4637
14.7414
14.8559
14.7491
14.4265
13.9703
13.438
12.8433
12.1954
11.5379
10.8694
10.2163
9.57246
8.95835
8.37167
7.81584
7.29568
6.81048
6.36456
5.95032
5.57871
5.23806
4.92252
4.67126
4.36853
4.20214
4.37795
5.34136
8.71361
10.267
7.26134
1.90005
0.241041
0.0225133
0.00287527
0.000477361
8.16373e-05
1.3036e-05
0.0360018
0.254777
0.818774
1.8898
3.50674
5.49567
7.64717
9.70087
11.5044
12.9773
14.1365
14.9076
15.3658
15.5633
15.5807
15.3383
14.9355
14.42
13.8221
13.1705
12.4852
11.7872
11.0908
10.4087
9.74655
9.11219
8.50955
7.9417
7.41053
6.91644
6.46291
6.04215
5.6652
5.32001
4.99957
4.74435
4.43886
4.26422
4.44157
5.40685
8.75402
10.2412
7.22283
1.8861
0.238924
0.0223299
0.002857
0.000474825
8.12572e-05
1.29827e-05
0.0525488
0.407804
1.40025
3.21263
5.65547
8.30583
10.8214
12.9801
14.6782
15.9345
16.7994
17.2804
17.4667
17.4306
17.1261
16.6549
16.0675
15.3935
14.6588
13.8906
13.1086
12.3296
11.5664
10.8282
10.1179
9.44392
8.80839
8.21286
7.65836
7.14472
6.67479
6.24007
5.8516
5.49629
5.16522
4.90184
4.58945
4.401
4.58368
5.55627
8.84855
10.1806
7.12044
1.84716
0.233003
0.0218311
0.00280946
0.00046823
8.02521e-05
1.28384e-05
0.110095
1.00324
3.57873
7.42807
11.3721
14.7965
17.3886
19.2879
20.3836
21.0098
21.2462
21.1576
20.7819
20.2138
19.4869
18.657
17.7717
16.8475
15.9027
14.959
14.0323
13.1324
12.2702
11.4478
10.6671
9.9332
9.24852
8.61242
8.02358
7.48125
6.98723
6.53195
6.12653
5.75602
5.40948
5.13421
4.81131
4.61209
4.80034
5.78732
8.98349
10.0903
6.95547
1.78068
0.223109
0.0210125
0.00273213
0.000457474
7.86003e-05
1.25988e-05
0.55559
4.81226
12.8514
20.0862
24.8754
27.8504
29.0007
29.4905
29.1336
28.4381
27.4934
26.3967
25.1723
23.8839
22.5594
21.2437
19.9607
18.7068
17.4893
16.3204
15.2077
14.1538
13.1646
12.2363
11.3663
10.5566
9.8084
9.12067
8.48877
7.9104
7.38592
6.90475
6.47784
6.08735
5.72162
5.43142
5.09394
4.88279
5.08287
6.1016
9.12682
9.96703
6.72795
1.68953
0.209771
0.0199185
0.00262856
0.00044302
7.63752e-05
1.22753e-05
12.1828
30.1624
43.0382
47.4328
48.4085
47.8301
45.551
42.9362
40.1864
37.5437
35.0083
32.5912
30.2892
28.1264
26.0971
24.218
22.4742
20.8395
19.3094
17.8837
16.5585
15.3289
14.1949
13.1458
12.1745
11.2794
10.4587
9.71083
9.02985
8.41078
7.85158
7.34083
6.88906
6.47447
6.08728
5.77998
5.4237
5.20314
5.41827
6.47489
9.25665
9.80531
6.439
1.57746
0.19365
0.0186064
0.00250329
0.000425455
7.36683e-05
1.18814e-05
23.7905
62.6102
75.9647
76.2428
72.7553
68.5373
62.4079
56.6688
51.4342
46.7926
42.6192
38.8605
35.4775
32.4443
29.711
27.2706
25.0661
23.0481
21.2027
19.5168
17.975
16.566
15.2834
14.1104
13.0352
12.0528
11.1581
10.3475
9.61483
8.95364
8.35818
7.81656
7.33821
6.89674
6.48754
6.16148
5.78279
5.55861
5.79085
6.88407
9.34972
9.59851
6.0909
1.44948
0.175557
0.017143
0.00236175
0.000405476
7.05868e-05
1.14333e-05
9.66981
55.4297
84.3588
89.5079
86.5955
81.1564
73.8458
66.6755
60.0746
54.163
48.8551
44.1232
39.9282
36.2174
32.9244
30.02
27.4304
25.0875
22.9693
21.0548
19.3206
17.7516
16.3348
15.0489
13.8788
12.8161
11.854
10.9859
10.2043
9.50318
8.87342
8.3025
7.79779
7.32875
6.89912
6.55272
6.14945
5.93018
6.17678
7.28405
9.39209
9.34559
5.68704
1.31163
0.156414
0.015603
0.00220999
0.00038387
6.7252e-05
1.0949e-05
3.85737
32.1378
65.7299
81.8221
84.583
82.2791
76.8465
70.333
63.9573
57.8716
52.3345
47.3296
42.8432
38.8314
35.2579
32.0892
29.2588
26.7023
24.3976
22.3221
20.4497
18.7629
17.2443
15.871
14.6268
13.5005
12.4857
11.5726
10.7527
10.0182
9.35959
8.76414
8.23558
7.741
7.29456
6.92613
6.49937
6.29604
6.54685
7.60341
9.3936
9.04841
5.24011
1.1671
0.137192
0.0140611
0.0020543
0.00036148
6.37946e-05
1.0448e-05
1.79445
12.5418
34.965
55.9797
67.4771
71.1308
70.4773
66.8892
62.6473
57.5928
52.7582
48.067
43.7581
39.8481
36.3197
33.1386
30.2518
27.6403
25.2817
23.1504
21.221
19.4774
17.905
16.483
15.1973
14.0348
12.9901
12.0516
11.2096
10.4543
9.77607
9.16346
8.61617
8.10128
7.64308
7.25151
6.80818
6.63216
6.87331
7.83259
9.33258
8.70616
4.76216
1.02361
0.1188
0.0125842
0.00190079
0.000339166
6.035e-05
9.95078e-06
0.170358
2.59067
11.4573
26.721
41.5344
51.1584
55.7488
56.44
55.3423
52.3746
49.4241
45.818
42.3625
39.0455
35.9169
33.0064
30.2909
27.7913
25.5039
23.4163
21.5167
19.7896
18.2246
16.8063
15.5217
14.3592
13.3157
12.3779
11.5347
10.7757
10.0905
9.47055
8.91187
8.38489
7.92057
7.50615
7.0608
6.92098
7.14554
7.9734
9.18328
8.29118
4.2673
0.8832
0.101408
0.0111783
0.00174973
0.000316949
5.69209e-05
9.45792e-06
0.0455528
0.515087
2.56467
8.0005
17.0938
27.3356
35.3436
40.1027
42.3596
42.4809
41.7708
39.9411
38.0001
35.773
33.3985
31.1186
28.8917
26.7665
24.7689
22.897
21.1597
19.5548
18.0836
16.7419
15.5174
14.4055
13.4025
12.4937
11.6743
10.9324
10.258
9.6446
9.0846
8.55721
8.09259
7.65983
7.23935
7.13767
7.35737
8.02632
8.90171
7.77067
3.73695
0.740098
0.0843026
0.00976834
0.00159106
0.000293126
5.32133e-05
8.92221e-06
0.0203269
0.151449
0.58683
1.7611
4.44986
9.15818
15.374
21.3059
25.8309
28.6745
30.222
30.5952
30.3283
29.5605
28.3499
27.0976
25.6459
24.1356
22.6629
21.2144
19.8127
18.4764
17.2252
16.0608
14.9811
13.991
13.0845
12.2552
11.4995
10.8065
10.1708
9.58694
9.0436
8.53653
8.08723
7.65659
7.29979
7.23604
7.43423
7.9654
8.45841
7.09492
3.15316
0.591206
0.0671955
0.00830329
0.00141504
0.000265761
4.88564e-05
8.27904e-06
0.0112692
0.0622165
0.184919
0.449625
1.00512
2.12755
4.15125
7.1352
10.7336
14.1705
16.9852
19.0009
20.2836
20.9566
21.0934
20.8967
20.4499
19.7538
19.0032
18.1528
17.2354
16.3097
15.4158
14.5466
13.713
12.9238
12.1837
11.4948
10.852
10.2503
9.68917
9.16512
8.66748
8.20465
7.7895
7.41151
7.16721
7.10319
7.27124
7.73403
7.84875
6.23589
2.50885
0.441051
0.0506663
0.00680181
0.00121939
0.000233993
4.36416e-05
7.48625e-06
0.00691647
0.0314617
0.0772232
0.157748
0.296705
0.538165
0.963398
1.69548
2.84858
4.45129
6.35245
8.31027
10.0738
11.531
12.6221
13.3594
13.7995
13.9703
13.9368
13.752
13.4296
13.021
12.5763
12.0793
11.5655
11.0443
10.5389
10.0452
9.56666
9.10736
8.66744
8.24641
7.83949
7.46065
7.13634
6.86984
6.72132
6.67842
6.85167
7.2641
7.02995
5.18521
1.82341
0.299669
0.035697
0.00531985
0.00100737
0.000197915
3.75219e-05
6.5267e-06
0.0044734
0.0179032
0.0388348
0.0704236
0.117285
0.186974
0.292354
0.454084
0.704123
1.08561
1.64531
2.3992
3.30781
4.31879
5.34327
6.29416
7.12149
7.7941
8.29596
8.6365
8.82936
8.89731
8.871
8.76315
8.58573
8.38207
8.14637
7.8836
7.6104
7.33337
7.05628
6.78401
6.52109
6.28463
6.09847
5.96006
5.90465
5.96961
6.21286
6.47229
5.9506
3.94356
1.1795
0.181065
0.0233563
0.00393523
0.000788165
0.000158809
3.0668e-05
5.41927e-06
0.00294971
0.0108907
0.0218565
0.0367045
0.0565107
0.0827997
0.11793
0.165479
0.230813
0.321686
0.448807
0.625685
0.867728
1.1855
1.57869
2.03783
2.54584
3.07427
3.58571
4.05006
4.44412
4.75722
4.99161
5.15308
5.24803
5.29311
5.2957
5.26339
5.20516
5.12904
5.04251
4.95302
4.86959
4.80628
4.77562
4.79298
4.88048
5.06158
5.32563
5.36787
4.63555
2.59028
0.650716
0.0957561
0.0142129
0.0027273
0.000576047
0.000119175
2.34912e-05
4.22519e-06
0.00194814
0.00685109
0.0131168
0.0210065
0.0308144
0.042904
0.0577709
0.0761245
0.0989828
0.127762
0.164457
0.211579
0.272468
0.351068
0.451207
0.578799
0.737116
0.926036
1.14174
1.37955
1.62491
1.86274
2.08563
2.28806
2.46634
2.62093
2.7525
2.86297
2.95594
3.03516
3.10605
3.17437
3.24794
3.33647
3.44831
3.59386
3.78531
4.02259
4.19037
4.0178
3.13585
1.36171
0.288265
0.0446659
0.00808566
0.00174813
0.000387094
8.22554e-05
1.65847e-05
3.04232e-06
0.00127162
0.00435547
0.00812337
0.0126682
0.0180824
0.0244648
0.0319316
0.0406351
0.050784
0.0626747
0.0767218
0.0934518
0.113556
0.1379
0.167605
0.203948
0.248295
0.301435
0.365758
0.44307
0.53342
0.631878
0.738765
0.852768
0.971817
1.09408
1.21799
1.34229
1.46684
1.59203
1.71985
1.85298
1.99548
2.1522
2.32572
2.51675
2.72099
2.89279
2.90057
2.56827
1.62381
0.527355
0.103329
0.0193598
0.00429568
0.00101815
0.000234705
5.12543e-05
1.05876e-05
1.98423e-06
0.000809568
0.00274515
0.00506768
0.00782206
0.0110407
0.0147504
0.0189725
0.0237304
0.029059
0.0350141
0.0416839
0.0492005
0.0577456
0.0675948
0.0790849
0.0926136
0.108652
0.127712
0.150278
0.177356
0.211146
0.250994
0.296363
0.349025
0.40921
0.476957
0.552314
0.635314
0.725993
0.824558
0.932005
1.04943
1.1781
1.31802
1.46598
1.61317
1.73415
1.76642
1.64302
1.21895
0.5547
0.149707
0.0333782
0.00808474
0.00208538
0.000526262
0.000125584
2.81957e-05
5.9763e-06
1.14546e-06
0.000493689
0.00168389
0.00312889
0.00485261
0.0068683
0.00917787
0.0117701
0.014628
0.017738
0.0210948
0.0247087
0.0286225
0.0328222
0.0375138
0.0427928
0.048855
0.0559451
0.0643732
0.0744891
0.0867318
0.102314
0.121729
0.144255
0.171092
0.202652
0.239301
0.281422
0.329409
0.383567
0.444297
0.511863
0.586128
0.666091
0.74851
0.825745
0.882461
0.892855
0.835479
0.648174
0.357171
0.131493
0.0381736
0.010967
0.0031908
0.000894075
0.000235074
5.77985e-05
1.33314e-05
2.89989e-06
5.67852e-07
0.000279657
0.000986472
0.0018901
0.00300656
0.00433312
0.00585223
0.0075369
0.0093546
0.0112751
0.0132763
0.0153407
0.0174677
0.0196662
0.0219947
0.0244854
0.0273349
0.0306231
0.0345894
0.0395248
0.0457371
0.0538215
0.0642912
0.0767179
0.0915145
0.10892
0.129036
0.151959
0.177737
0.206327
0.237515
0.270727
0.304703
0.33695
0.363316
0.376081
0.37129
0.336471
0.257904
0.158266
0.07457
0.0290383
0.0103772
0.0035142
0.00110872
0.00032345
8.74734e-05
2.20591e-05
5.21422e-06
1.16208e-06
2.31537e-07
0.000138068
0.000547888
0.00113754
0.00191169
0.00284492
0.00390187
0.00504623
0.0062324
0.00742489
0.00860315
0.0097513
0.0108617
0.011937
0.0130063
0.0141264
0.0153625
0.0167763
0.0185318
0.0208998
0.0240419
0.0281816
0.0336948
0.0403946
0.0482595
0.0573716
0.0675914
0.0787532
0.0906105
0.102791
0.114716
0.125581
0.134273
0.139037
0.138352
0.130623
0.112654
0.0863061
0.0571343
0.0323206
0.0158844
0.00694377
0.00272875
0.000970455
0.000314003
9.33359e-05
2.56989e-05
6.60106e-06
1.58997e-06
3.61252e-07
7.26278e-08
5.2289e-05
0.00031578
0.000782662
0.00140084
0.00210643
0.00287692
0.00365126
0.004387
0.00508533
0.00572898
0.00630512
0.00680361
0.00719626
0.00754522
0.00796497
0.00844833
0.00890992
0.00960311
0.0106623
0.0121505
0.0141091
0.0166505
0.0197455
0.0233671
0.0275991
0.0320331
0.0364804
0.0406612
0.0442402
0.0469146
0.0481128
0.0478158
0.0460682
0.0416716
0.0351519
0.0273824
0.0193887
0.0122207
0.00674569
0.0033351
0.00146427
0.000575252
0.000203881
6.58163e-05
1.95784e-05
5.41282e-06
1.40024e-06
3.40095e-07
7.79834e-08
1.55358e-08
1.94355e-05
0.000334275
0.000733698
0.00114324
0.00157908
0.00202746
0.00245165
0.00287024
0.00328118
0.00363822
0.00392764
0.00414229
0.00428476
0.00435411
0.0043657
0.00437408
0.00444975
0.00464213
0.00500032
0.00556164
0.00634162
0.00734036
0.00855697
0.00995176
0.0114669
0.0130264
0.0145125
0.0157767
0.0166536
0.016984
0.0166502
0.0156042
0.0138892
0.011623
0.0090976
0.00660958
0.00441455
0.0026826
0.00147077
0.000724272
0.00032259
0.000131894
5.04686e-05
1.54557e-05
3.50482e-06
8.76578e-07
2.7693e-07
7.31776e-08
1.35737e-08
2.31748e-09
)
;

boundaryField
{
    AXIS
    {
        type            empty;
    }
    OUTLET
    {
        type            zeroGradient;
    }
    COFLOW
    {
        type            calculated;
        value           uniform 0;
    }
    PILOT
    {
        type            calculated;
        value           uniform 0;
    }
    FUEL
    {
        type            calculated;
        value           uniform 0;
    }
    WALL
    {
        type            zeroGradient;
    }
    front
    {
        type            wedge;
    }
    back
    {
        type            wedge;
    }
}


// ************************************************************************* //
