/*--------------------------------*- C++ -*----------------------------------*\
| =========                 |                                                 |
| \\      /  F ield         | OpenFOAM: The Open Source CFD Toolbox           |
|  \\    /   O peration     | Version:  2.4.x                                 |
|   \\  /    A nd           | Web:      www.OpenFOAM.org                      |
|    \\/     M anipulation  |                                                 |
\*---------------------------------------------------------------------------*/
FoamFile
{
    version     2.0;
    format      ascii;
    class       volScalarField;
    location    "0.07";
    object      epsilon;
}
// * * * * * * * * * * * * * * * * * * * * * * * * * * * * * * * * * * * * * //

dimensions      [0 2 -3 0 0 0 0];

internalField   nonuniform List<scalar> 
1250
(
76.2176
136.084
196.3
280.395
388.747
512.388
636.902
757.303
850.69
926.349
986.544
1022.09
1047.85
1051.38
1047.65
1032.12
1009.34
978.863
945.792
908.891
867.257
825.949
783.725
744.492
703.766
664.591
626.701
590.1
555.637
523.004
492.172
463.347
436.844
411.335
388.175
369.27
344.186
330.561
342.3
413.472
677.951
968.721
797.914
247.952
49.3054
14.1187
8.32507
7.37316
7.21596
7.18699
80.2134
146.404
221.132
325.846
455.496
596.303
735.399
854.671
947.263
1015.67
1067.55
1098.48
1113.07
1110.9
1099.68
1075.8
1046.53
1012.54
974.044
932.525
888.675
843.997
799.965
758.373
716.739
675.706
636.452
598.912
563.502
530.097
498.596
469.173
442.128
416.195
392.61
373.267
347.868
333.625
345.249
416.25
680.315
966.783
795.493
246.656
49.0716
14.0781
8.31647
7.37026
7.21401
7.18524
88.0695
177.091
300.905
469.107
657.672
838.028
990.471
1104.55
1182.43
1230.87
1261.57
1269.94
1263.48
1243.85
1211.13
1171.06
1128.91
1083.63
1034.97
984.658
933.692
883.032
834.112
788.463
743.454
699.412
657.452
617.614
580.25
545.137
512.212
481.534
453.328
426.442
401.93
381.707
355.519
340.362
351.88
422.928
687.292
961.877
787.725
242.298
48.317
13.9533
8.29378
7.36371
7.21002
7.18173
104.867
271.65
545.551
872.863
1156.55
1368.53
1503.35
1580.03
1605.13
1600.25
1583.57
1548.36
1499.88
1443.63
1380.48
1315.11
1252.12
1188.74
1124.59
1061.25
999.744
940.229
884.129
832.103
782.214
733.926
687.941
644.796
604.556
566.975
531.977
499.473
469.58
441.288
415.439
393.952
366.624
350.387
361.986
433.571
699.582
955.162
774.388
234.612
46.9838
13.7403
8.25644
7.35372
7.20427
7.17674
200.272
696.616
1385.33
1972.67
2268.11
2391.4
2384.43
2336.44
2235.67
2128.31
2025.92
1919.72
1810.61
1702.82
1596.84
1497.65
1407.16
1320.19
1236.37
1156.75
1081.91
1011.34
946.135
886.298
829.913
776.455
725.847
678.491
634.732
594.095
556.515
521.749
489.812
459.743
432.236
409.198
380.468
363.239
375.163
447.633
715.775
945.951
755.254
223.816
45.1216
13.4445
8.20526
7.34032
7.1967
7.17022
1116.13
2829.99
3975.2
4108.46
4031.61
3834.63
3540.77
3257.27
2986.63
2748.68
2537.63
2341.19
2157.66
1989.71
1836.26
1699.81
1578.49
1465.21
1359.68
1262.26
1172.77
1090.08
1014.8
946.425
882.858
823.485
767.991
716.243
668.531
624.547
584.13
546.826
512.643
480.596
451.241
426.478
396.231
378.355
390.881
464.42
734.386
933.467
730.095
210.398
42.8009
13.0762
8.14168
7.32364
7.18725
7.16204
1209.7
4163.25
5453.11
5514.32
5305.03
4974.96
4496.59
4049.85
3648.81
3304.86
3000.31
2725.12
2478.11
2259.11
2063.07
1892.68
1742.9
1605.22
1479.49
1365.45
1262.08
1167.87
1083.01
1006.5
936.071
870.839
810.489
754.63
703.173
655.853
612.597
572.752
536.353
502.317
471.161
444.623
412.932
394.989
408.58
483.09
753.433
917.131
698.664
195.074
40.1128
12.6485
8.06764
7.30388
7.17584
7.1521
497.488
2393.83
4472.84
5236.11
5313.12
5157.67
4800.75
4387.92
3989.38
3626.21
3288.64
2979.16
2701.09
2453.55
2233.52
2042.45
1873.28
1718.57
1578.18
1451.77
1337.91
1235.01
1142.7
1059.74
983.74
913.617
849.071
789.763
735.234
685.099
639.373
597.298
558.954
523.118
490.471
462.343
429.484
412.197
427.361
502.608
770.964
896.199
660.812
178.69
37.1698
12.1789
7.98563
7.2813
7.1624
7.14026
249.635
1018.38
2490.48
3702.31
4306.61
4491.18
4418.12
4198.54
3913.57
3615.32
3317.29
3032.28
2768.16
2526.91
2309.59
2119
1946.02
1785.21
1639.26
1507.77
1389.28
1282.21
1186
1099.33
1019.85
946.541
879.231
817.549
761.105
709.148
661.673
618.037
578.307
541.12
507.49
478.093
444.656
428.979
446.019
521.819
784.896
870.339
617.431
161.687
34.1
11.688
7.89847
7.25616
7.14682
7.12636
149.009
364.83
964.017
1897.47
2713.47
3223.93
3473.13
3518.87
3456.99
3304.49
3106.89
2890.41
2675.84
2470.4
2280.68
2109.05
1945.52
1791.39
1650.97
1523.33
1407.25
1301.58
1205.86
1118.83
1038.61
964.57
896.563
834.285
777.261
724.866
676.876
632.544
592.239
554.434
520.539
490.371
457.311
444.277
463.21
539.993
792.959
839.518
570.17
144.436
31.0398
11.1965
7.80909
7.22876
7.129
7.11022
32.0771
110.273
305.878
711.932
1306.51
1878.71
2301.58
2558.83
2684.31
2687.1
2641.12
2537.04
2410.81
2274.68
2138.44
2004.05
1866.14
1732.78
1608.64
1493.18
1386.15
1287.27
1196.54
1112.99
1035.46
963.658
897.514
836.813
781.032
729.775
682.593
638.817
598.977
561.559
528.286
498.066
466.73
457.352
478.28
558.143
792.206
803.022
518.939
127.12
28.0197
10.708
7.71735
7.19854
7.10831
7.09124
17.1678
42.877
101.871
222.202
454.263
810.722
1197.45
1526.54
1766.96
1912.09
1987.22
1996.29
1975.05
1923.33
1850.66
1767.02
1674.64
1580.99
1488.57
1397.88
1310.28
1226.73
1147.97
1073.82
1004.01
938.602
877.655
821.115
768.754
720.37
675.594
633.933
595.768
560.145
528.635
499.476
471.889
467.236
490.75
576.504
779.787
758.737
460.664
109.025
24.9233
10.2007
7.61877
7.16403
7.0838
7.06853
13.1966
23.5324
42.3802
76.6397
140.714
255.08
444.801
678.026
908.256
1103.47
1251.17
1349.95
1410.14
1436.57
1433.29
1415.12
1377.38
1330.51
1278.15
1221.3
1162.07
1102.21
1043.14
985.601
929.891
876.257
825.123
776.814
731.382
688.858
649.046
611.945
577.626
545.89
518.043
491.837
470.505
470.881
498
593.2
753.417
703.365
392.229
89.7953
21.6936
9.66193
7.51085
7.1248
7.05544
7.0421
11.6075
16.4108
23.8314
34.9633
52.842
83.2443
134.908
216.905
335.383
471.127
606.277
727.58
827.391
903.118
954.575
986.25
999.771
998.482
989.771
970.481
944.178
913.36
879.78
844.277
807.424
769.839
732.569
696.197
661.056
627.406
595.516
565.823
538.125
512.596
490.723
470.707
459.095
463.667
496.213
601.287
708.262
634
312.461
70.0893
18.414
9.10258
7.39535
7.08163
7.02389
7.01257
10.8409
13.2556
16.6434
21.1666
27.3561
36.2954
49.9862
71.4624
104.089
151.467
214.664
288.701
365.902
439.936
506.158
561.384
604.848
636.788
658.916
671.79
675.696
673.484
666.621
654.274
637.905
618.869
598.261
576.587
554.618
532.991
512.154
492.516
474.167
457.556
443.97
433.475
432.439
443.297
484.76
590.279
642.597
548.023
223.844
51.2171
15.2553
8.5476
7.27642
7.03563
6.98981
6.98048
10.4339
11.6678
13.3357
15.4396
18.075
21.4639
25.9935
32.2545
41.0476
53.5093
71.1171
94.7032
124.771
160.609
200.591
242.088
282.596
320.163
353.424
381.423
403.461
419.839
431.161
437.524
438.617
437.117
433.072
426.634
419.076
410.913
402.616
394.699
387.58
381.932
379.403
380.48
387.952
409.763
462.582
547.136
553.583
430.663
144.28
35.0785
12.4607
8.03367
7.1602
6.98797
6.95362
6.94609
10.2052
10.8084
11.6388
12.6746
13.9261
15.4347
17.2834
19.5977
22.5368
26.3257
31.3021
37.7314
46.0022
56.4624
69.4022
84.9839
103.057
123.283
144.908
166.873
187.9
207.087
223.976
238.272
249.71
258.899
266.143
271.697
276.061
279.629
282.843
286.188
290.158
295.568
303.584
315.121
333.263
365.168
420.07
465.465
442.712
285.283
83.8839
22.956
10.2325
7.59867
7.05316
6.93954
6.91513
6.90904
10.0749
10.3312
10.7242
11.2312
11.8476
12.5764
13.4314
14.4377
15.6325
17.0665
18.7987
20.874
23.377
26.3932
30.0529
34.4873
39.8351
46.2297
53.8549
62.7549
72.6994
83.414
94.6124
105.961
117.132
128.05
138.666
148.957
159.062
169.086
179.234
189.832
201.318
214.428
229.943
248.802
273.529
308.308
347.749
356.124
309.198
150.01
42.9746
14.8874
8.65688
7.26613
6.95877
6.88958
6.87282
6.8677
10.0024
10.0806
10.2434
10.4794
10.7814
11.1444
11.5664
12.0498
12.6011
13.23
13.9496
14.7775
15.7302
16.8219
18.0937
19.5829
21.3291
23.388
25.851
28.848
32.523
36.9781
42.2228
48.2478
55.0199
62.5068
70.6782
79.5044
89.003
99.1734
110.14
122.105
135.37
150.417
167.609
187.505
211.048
236.466
249.227
235.153
164.215
62.5317
21.1345
10.3485
7.68109
7.03135
6.87438
6.8345
6.82275
6.81816
9.97308
9.98195
10.0427
10.1582
10.3144
10.5046
10.7231
10.9674
11.2379
11.5379
11.8737
12.2544
12.6876
13.194
13.7909
14.4917
15.3121
16.2878
17.4601
18.8874
20.6671
22.9116
25.6695
28.9836
32.9032
37.4603
42.7055
48.6941
55.4552
63.0169
71.5065
81.0454
91.8062
103.897
117.273
131.745
145.592
152.723
147.376
117.26
60.3595
24.1408
11.737
8.13817
7.13622
6.8642
6.78911
6.76592
6.75697
6.75267
9.98742
10.0228
10.1008
10.2058
10.3264
10.4538
10.5798
10.7018
10.8233
10.951
11.0941
11.2678
11.4576
11.7197
12.0482
12.4596
12.9784
13.6282
14.4333
15.4216
16.6421
18.1563
19.9934
22.1702
24.7118
27.6453
31.0039
34.8256
39.1253
43.9393
49.3137
55.2449
61.6988
68.4839
75.1518
80.4224
81.9708
78.4008
64.0363
40.1232
20.6954
11.5492
8.25711
7.1717
6.82915
6.72073
6.68371
6.66846
6.66094
6.6571
10.0804
10.307
10.5646
10.7998
10.9853
11.1117
11.182
11.2048
11.1948
11.1696
11.1421
11.1292
11.1409
11.2035
11.3133
11.5287
11.8325
12.2504
12.8101
13.5292
14.4324
15.5403
16.8615
18.3801
20.0849
21.9667
24.0191
26.2318
28.589
31.0633
33.6009
36.1103
38.3994
40.1209
40.7596
40.0795
36.728
30.0382
21.6635
14.297
9.88663
7.84028
7.0225
6.71485
6.59842
6.55154
6.52986
6.51767
6.51134
6.50845
10.5001
11.4582
12.2591
12.8402
13.1513
13.2333
13.1502
12.9366
12.6435
12.3211
11.9982
11.6943
11.4244
11.2098
11.0718
11.016
11.0265
11.1285
11.3863
11.7839
12.3206
13.0095
13.8469
14.7984
15.8134
16.8493
17.8719
18.8465
19.7339
20.4824
21.0257
21.2847
21.2225
20.6479
19.2933
17.3109
14.7159
11.9704
9.61305
8.01087
7.11683
6.67999
6.4808
6.3873
6.34033
6.31469
6.2988
6.28799
6.28234
6.27957
13.9897
18.5492
20.5633
21.1411
20.772
20.0046
18.8863
17.6134
16.4188
15.3178
14.3134
13.3963
12.5161
11.7693
11.2628
10.8784
10.4233
10.1294
10.022
10.0532
10.1857
10.4055
10.7138
11.1374
11.6445
12.0693
12.3956
12.595
12.6457
12.5656
12.3203
11.8864
11.3042
10.5835
9.76612
8.92734
8.14514
7.44001
6.82138
6.48779
6.30594
6.21944
6.16629
6.12591
6.09742
6.07724
6.06259
6.0516
6.04397
6.0382
148.914
119.681
90.3881
70.7226
57.0009
47.428
38.8653
32.8525
28.9857
25.7304
22.9412
20.5142
18.3817
16.4855
14.7983
13.3416
12.1494
11.2316
10.5865
10.1913
10.0032
9.97677
10.0806
10.2662
10.4854
10.6993
10.8701
10.9656
10.9619
10.8449
10.6118
10.2751
9.87555
9.45231
9.04493
8.68388
8.38512
8.15051
7.97538
7.84806
7.7582
7.69291
7.64441
7.60643
7.57696
7.55368
7.53545
7.52057
7.50961
7.50018
)
;

boundaryField
{
    AXIS
    {
        type            empty;
    }
    OUTLET
    {
        type            zeroGradient;
    }
    COFLOW
    {
        type            fixedValue;
        value           uniform 10;
    }
    PILOT
    {
        type            fixedValue;
        value           uniform 10;
    }
    FUEL
    {
        type            fixedValue;
        value           uniform 50;
    }
    WALL
    {
        type            compressible::epsilonWallFunction;
        Cmu             0.09;
        kappa           0.41;
        E               9.8;
        value           nonuniform List<scalar> 
50
(
148.914
119.681
90.3881
70.7226
57.0009
47.428
38.8653
32.8525
28.9857
25.7304
22.9412
20.5142
18.3817
16.4855
14.7983
13.3416
12.1494
11.2316
10.5865
10.1913
10.0032
9.97677
10.0806
10.2662
10.4854
10.6993
10.8701
10.9656
10.9619
10.8449
10.6118
10.2751
9.87555
9.45231
9.04493
8.68388
8.38512
8.15051
7.97538
7.84806
7.7582
7.69291
7.64441
7.60643
7.57696
7.55368
7.53545
7.52057
7.50961
7.50018
)
;
    }
    front
    {
        type            wedge;
    }
    back
    {
        type            wedge;
    }
}


// ************************************************************************* //
