/*--------------------------------*- C++ -*----------------------------------*\
| =========                 |                                                 |
| \\      /  F ield         | OpenFOAM: The Open Source CFD Toolbox           |
|  \\    /   O peration     | Version:  2.4.x                                 |
|   \\  /    A nd           | Web:      www.OpenFOAM.org                      |
|    \\/     M anipulation  |                                                 |
\*---------------------------------------------------------------------------*/
FoamFile
{
    version     2.0;
    format      ascii;
    class       volScalarField;
    location    "0.07";
    object      k;
}
// * * * * * * * * * * * * * * * * * * * * * * * * * * * * * * * * * * * * * //

dimensions      [0 2 -2 0 0 0 0];

internalField   nonuniform List<scalar> 
1250
(
5.55702
5.94539
5.90685
5.98252
6.20642
6.53024
6.83359
7.09689
7.2184
7.28533
7.29708
7.26809
7.20727
7.08435
6.94691
6.76688
6.59944
6.41687
6.23362
6.04203
5.83821
5.63951
5.44297
5.26499
5.08016
4.90097
4.72821
4.56009
4.40246
4.25265
4.10651
3.97847
3.84967
3.72678
3.64246
3.52024
3.41832
3.43372
3.60244
4.28466
6.7515
8.70498
7.30398
2.72723
0.823152
0.45238
0.383712
0.370626
0.368079
0.367455
5.60994
5.94206
5.95995
6.11367
6.4123
6.7799
7.12196
7.35251
7.46407
7.50479
7.49788
7.45778
7.36736
7.23252
7.06866
6.88088
6.69658
6.50818
6.31118
6.10862
5.90189
5.69514
5.49582
5.31263
5.12785
4.94361
4.76747
4.59732
4.43731
4.28551
4.13781
4.0081
3.87765
3.754
3.66815
3.54422
3.44166
3.45517
3.62422
4.30776
6.77819
8.6955
7.28644
2.7146
0.82079
0.451937
0.383577
0.37055
0.368014
0.367393
5.61222
5.92277
6.14418
6.53865
7.03697
7.47839
7.8083
7.97636
8.03927
8.02397
7.97025
7.8666
7.72264
7.54239
7.33735
7.11806
6.90769
6.69571
6.47655
6.25493
6.03371
5.81488
5.60592
5.41503
5.22466
5.03438
4.85171
4.67604
4.51129
4.35503
4.20406
4.07094
3.93693
3.81147
3.72216
3.59485
3.4911
3.50062
3.67285
4.36286
6.84805
8.67025
7.23313
2.67559
0.813481
0.450565
0.383236
0.370385
0.367879
0.367265
5.42625
6.03647
6.80563
7.70544
8.43243
8.8528
9.07979
9.09528
9.02869
8.87686
8.70217
8.4979
8.26323
8.00834
7.73844
7.46898
7.21755
6.96824
6.71671
6.4681
6.22585
5.98943
5.76641
5.56181
5.36335
5.16575
4.97347
4.79001
4.6182
4.45564
4.29992
4.16189
4.02282
3.89467
3.80017
3.6683
3.56394
3.56947
3.74624
4.45018
6.96317
8.63338
7.13992
2.60841
0.800721
0.448262
0.382688
0.370138
0.367683
0.367081
5.58491
7.05711
9.1024
10.5545
11.114
11.1587
11.0352
10.7333
10.3611
9.99619
9.65342
9.30407
8.94704
8.59018
8.2351
7.90157
7.59818
7.30208
7.01152
6.73065
6.46237
6.20441
5.9635
5.74251
5.53116
5.32522
5.12414
4.9306
4.75038
4.58013
4.41852
4.27446
4.12964
3.99817
3.89689
3.75996
3.65677
3.66132
3.84405
4.56621
7.11137
8.57897
7.00342
2.51486
0.782897
0.445066
0.38194
0.369809
0.367424
0.366838
9.01579
12.9038
14.9882
14.92
14.6067
13.9404
13.2149
12.4984
11.8173
11.2198
10.6825
10.1681
9.67299
9.20519
8.76498
8.36637
8.00738
7.66172
7.33013
7.01582
6.72003
6.43932
6.17905
5.94081
5.71511
5.49842
5.28945
5.08736
4.89776
4.71938
4.55162
4.40083
4.25018
4.11546
4.00617
3.86461
3.76552
3.77156
3.96361
4.70904
7.28028
8.50218
6.82225
2.39783
0.760624
0.44107
0.381006
0.369397
0.367099
0.366534
7.14453
14.7125
17.1198
17.0772
16.6588
15.7419
14.7716
13.8314
12.9657
12.2143
11.5322
10.8937
10.2998
9.75312
9.24491
8.7922
8.38547
7.99744
7.63074
7.2877
6.96763
6.6668
6.38939
6.13597
5.89757
5.67006
5.4532
5.245
5.04818
4.86211
4.68854
4.53124
4.37564
4.23835
4.12108
3.9765
3.88513
3.89504
4.10118
4.87673
7.4528
8.39832
6.59397
2.26266
0.734699
0.436394
0.379904
0.368902
0.366706
0.366164
3.15221
9.91575
14.3734
15.8913
16.0928
15.6885
15.0084
14.1973
13.399
12.6669
11.9654
11.2987
10.6768
10.1006
9.5706
9.09762
8.66438
8.25216
7.86461
7.50409
7.16899
6.85629
6.56819
6.30469
6.05761
5.82221
5.59892
5.38684
5.18618
4.99511
4.81734
4.65488
4.49606
4.35726
4.23349
4.08963
4.00977
4.02559
4.25201
5.06974
7.60791
8.26118
6.31719
2.11559
0.706143
0.431204
0.37866
0.368325
0.366242
0.365726
2.21454
5.44709
9.27907
12.0138
13.4547
13.9234
13.8474
13.5082
12.9803
12.4274
11.8351
11.2462
10.6791
10.1442
9.64935
9.205
8.78304
8.37178
7.98558
7.62596
7.29098
6.97838
6.68931
6.42343
6.1733
5.93491
5.7093
5.49602
5.29563
5.10401
4.92488
4.76
4.60085
4.46237
4.33468
4.19655
4.13209
4.15675
4.4106
5.29638
7.714
8.08692
5.99249
1.9635
0.676151
0.425701
0.377301
0.367668
0.365702
0.365213
2.01103
2.73899
4.67958
7.30666
9.43836
10.7616
11.4376
11.6997
11.6518
11.4588
11.1105
10.7171
10.2969
9.86981
9.46468
9.08718
8.70413
8.32203
7.96148
7.62246
7.30466
7.00648
6.72817
6.46866
6.22275
5.98845
5.76671
5.55752
5.36101
5.17404
4.99881
4.83484
4.67917
4.54382
4.41635
4.29013
4.24455
4.28204
4.56873
5.53542
7.7614
7.87696
5.63217
1.80826
0.645971
0.420094
0.375856
0.36693
0.365083
0.364622
1.15454
1.52397
2.2354
3.64749
5.50855
7.17
8.3747
9.16896
9.60186
9.78495
9.76144
9.65282
9.44692
9.20043
8.94625
8.67647
8.37338
8.06274
7.76193
7.46983
7.18816
6.91844
6.66259
6.41992
6.18797
5.96652
5.75623
5.55729
5.37032
5.19341
5.0271
4.86959
4.72233
4.59416
4.47274
4.36595
4.34213
4.39867
4.72287
5.78453
7.73407
7.62807
5.23513
1.65066
0.615843
0.414396
0.374307
0.366088
0.364361
0.363927
1.04001
1.16352
1.36321
1.78927
2.67228
3.91086
5.16864
6.23256
7.01881
7.56595
7.88581
8.0649
8.11233
8.08664
8.0104
7.87159
7.69498
7.50327
7.2994
7.08605
6.86926
6.65369
6.44194
6.23524
6.03421
5.83992
5.65293
5.47454
5.30513
5.14434
4.99295
4.84904
4.71605
4.6016
4.49509
4.4177
4.41833
4.50682
4.8714
6.02877
7.63248
7.31747
4.77282
1.483
0.584393
0.408298
0.37256
0.365092
0.363493
0.363089
1.01175
1.04951
1.09486
1.19074
1.41697
1.86454
2.60074
3.47117
4.30887
5.03439
5.59556
6.02216
6.31723
6.51112
6.62691
6.66078
6.64605
6.59964
6.51517
6.40514
6.27961
6.14352
5.99904
5.85125
5.70169
5.55177
5.40344
5.25927
5.12031
4.98736
4.86149
4.74273
4.63554
4.5446
4.46549
4.42766
4.45495
4.58557
5.01174
6.23766
7.44528
6.91937
4.21227
1.2999
0.550628
0.401546
0.370543
0.363908
0.362455
0.362082
1.00054
1.00447
1.00743
1.01778
1.05484
1.14904
1.34348
1.68698
2.18477
2.75259
3.3157
3.83314
4.27203
4.62698
4.90681
5.10792
5.24882
5.34484
5.39521
5.40402
5.3911
5.35573
5.29797
5.22826
5.14725
5.05849
4.9641
4.8681
4.77268
4.67974
4.592
4.51207
4.44452
4.39092
4.3582
4.36673
4.42991
4.625
5.14153
6.34343
7.12096
6.40398
3.52985
1.10586
0.514929
0.394146
0.368237
0.362523
0.361235
0.360895
0.995206
0.985665
0.974349
0.962821
0.955691
0.960855
0.988203
1.05619
1.1831
1.38902
1.68429
2.03553
2.4067
2.76754
3.10271
3.39397
3.64032
3.84662
4.01041
4.13441
4.22786
4.29281
4.33127
4.34868
4.34547
4.33152
4.30326
4.26839
4.23034
4.19307
4.15959
4.1328
4.11932
4.12094
4.14132
4.20337
4.33561
4.61433
5.22177
6.26335
6.6229
5.72866
2.74687
0.911769
0.478614
0.386258
0.365638
0.360911
0.359802
0.359497
0.992658
0.9774
0.960758
0.942825
0.924714
0.90868
0.897362
0.896189
0.908765
0.942498
1.00705
1.10894
1.26056
1.44913
1.66762
1.90098
2.13503
2.36109
2.57034
2.75661
2.91934
3.05842
3.17349
3.26612
3.33753
3.39412
3.43786
3.47324
3.50393
3.53354
3.56529
3.60343
3.65396
3.72046
3.81221
3.94834
4.15936
4.52251
5.16442
5.92569
5.92315
4.76403
1.98437
0.735162
0.444179
0.378209
0.362743
0.359015
0.35809
0.357815
0.991438
0.973757
0.955
0.935032
0.914099
0.892845
0.872204
0.853663
0.838245
0.827912
0.826551
0.834351
0.855435
0.893494
0.954138
1.03972
1.14737
1.27592
1.42098
1.57465
1.72944
1.87994
2.02208
2.15344
2.27352
2.38428
2.48692
2.58423
2.67893
2.77365
2.87151
2.97677
3.09434
3.2302
3.39547
3.60422
3.88534
4.29698
4.87269
5.26207
4.99802
3.48882
1.34861
0.593402
0.414115
0.370397
0.35952
0.356715
0.35596
0.355708
0.990891
0.972192
0.952593
0.931955
0.91029
0.887777
0.864747
0.841672
0.819108
0.797792
0.778317
0.760849
0.746741
0.737322
0.736285
0.742658
0.759094
0.789118
0.837244
0.901832
0.982785
1.07898
1.18661
1.30174
1.42145
1.54466
1.67058
1.79916
1.93154
2.0686
2.21206
2.36513
2.53186
2.7189
2.93454
3.18771
3.49698
3.88336
4.26701
4.31697
3.80822
2.16345
0.876946
0.489061
0.389477
0.362934
0.35579
0.353762
0.353147
0.352907
0.990657
0.971505
0.951513
0.93056
0.908602
0.885683
0.861934
0.837566
0.812825
0.78795
0.763199
0.739034
0.715784
0.693796
0.674418
0.658385
0.646977
0.643323
0.647129
0.660501
0.687733
0.735026
0.797751
0.874055
0.962665
1.06253
1.17272
1.29264
1.4222
1.56106
1.71035
1.87206
2.04892
2.24533
2.46416
2.70762
2.97638
3.24116
3.3536
3.17368
2.38845
1.16971
0.592554
0.420718
0.370389
0.35556
0.351122
0.349672
0.349152
0.348907
0.990534
0.971054
0.950662
0.929256
0.906797
0.883312
0.858892
0.833667
0.807798
0.781466
0.754878
0.728281
0.701923
0.676341
0.652127
0.62982
0.610378
0.595816
0.588242
0.588562
0.596614
0.620314
0.660465
0.712299
0.775416
0.849198
0.93339
1.02787
1.1323
1.24627
1.37074
1.5064
1.65434
1.81464
1.98453
2.15801
2.31208
2.37873
2.29559
1.91417
1.18202
0.653479
0.448126
0.378447
0.3551
0.347319
0.34461
0.343529
0.343058
0.342791
0.990394
0.970379
0.949173
0.926709
0.90301
0.878171
0.852338
0.825693
0.798432
0.770751
0.742844
0.714921
0.68722
0.660058
0.633769
0.609004
0.587048
0.569394
0.558017
0.55459
0.557823
0.5719
0.601433
0.640353
0.687652
0.742626
0.804738
0.873606
0.948565
1.02926
1.11563
1.2067
1.30107
1.39503
1.48203
1.54412
1.55358
1.49048
1.27587
0.922632
0.609995
0.445855
0.377635
0.350765
0.340406
0.336325
0.334564
0.33367
0.333206
0.3329
0.990127
0.968905
0.945782
0.92082
0.894267
0.866436
0.837661
0.808264
0.778534
0.748706
0.718972
0.689509
0.66045
0.631997
0.604488
0.578512
0.555112
0.535687
0.522213
0.516472
0.517619
0.52652
0.548284
0.577781
0.612713
0.651992
0.694586
0.739489
0.7857
0.832157
0.877421
0.919685
0.955633
0.979563
0.984473
0.966519
0.901633
0.784448
0.635462
0.497459
0.407121
0.359319
0.336751
0.326432
0.321647
0.319265
0.317952
0.317122
0.316634
0.316273
0.989644
0.965296
0.937045
0.905783
0.872678
0.838484
0.803892
0.769472
0.735622
0.702537
0.670281
0.638877
0.608348
0.578801
0.550485
0.523809
0.499643
0.479306
0.464412
0.456449
0.455449
0.459657
0.473145
0.493235
0.516011
0.540223
0.564585
0.587839
0.608727
0.625889
0.637733
0.642619
0.640367
0.626788
0.597475
0.555123
0.499548
0.43994
0.386065
0.346273
0.321238
0.306918
0.299104
0.294688
0.29209
0.290437
0.289332
0.288519
0.287999
0.287572
0.988776
0.953087
0.905625
0.854643
0.807077
0.759754
0.714622
0.672718
0.634184
0.598401
0.564881
0.533237
0.503272
0.474836
0.447766
0.422363
0.399656
0.380766
0.366822
0.358711
0.356332
0.357535
0.363374
0.373738
0.385076
0.39634
0.406399
0.414163
0.418668
0.419505
0.416635
0.40694
0.391763
0.372402
0.350036
0.326643
0.304277
0.284923
0.269835
0.259074
0.251917
0.247188
0.243998
0.241708
0.240051
0.238818
0.237897
0.237145
0.236644
0.236203
0.975754
0.843465
0.699504
0.593957
0.514403
0.455064
0.398496
0.356258
0.327727
0.302708
0.28042
0.26028
0.241918
0.224984
0.209359
0.195378
0.183549
0.17417
0.167418
0.163208
0.161179
0.160883
0.161989
0.163968
0.166295
0.168552
0.170348
0.171354
0.171328
0.170119
0.167685
0.16413
0.159854
0.155255
0.15076
0.146716
0.143324
0.14063
0.138602
0.137117
0.136064
0.135297
0.134726
0.134278
0.13393
0.133654
0.133438
0.133262
0.133132
0.13302
)
;

boundaryField
{
    AXIS
    {
        type            empty;
    }
    OUTLET
    {
        type            zeroGradient;
    }
    COFLOW
    {
        type            fixedValue;
        value           uniform 1;
    }
    PILOT
    {
        type            fixedValue;
        value           uniform 1;
    }
    FUEL
    {
        type            fixedValue;
        value           uniform 5;
    }
    WALL
    {
        type            compressible::kqRWallFunction;
        value           nonuniform List<scalar> 
50
(
0.975754
0.843465
0.699504
0.593957
0.514403
0.455064
0.398496
0.356258
0.327727
0.302708
0.28042
0.26028
0.241918
0.224984
0.209359
0.195378
0.183549
0.17417
0.167418
0.163208
0.161179
0.160883
0.161989
0.163968
0.166295
0.168552
0.170348
0.171354
0.171328
0.170119
0.167685
0.16413
0.159854
0.155255
0.15076
0.146716
0.143324
0.14063
0.138602
0.137117
0.136064
0.135297
0.134726
0.134278
0.13393
0.133654
0.133438
0.133262
0.133132
0.13302
)
;
    }
    front
    {
        type            wedge;
    }
    back
    {
        type            wedge;
    }
}


// ************************************************************************* //
