/*--------------------------------*- C++ -*----------------------------------*\
| =========                 |                                                 |
| \\      /  F ield         | OpenFOAM: The Open Source CFD Toolbox           |
|  \\    /   O peration     | Version:  2.4.x                                 |
|   \\  /    A nd           | Web:      www.OpenFOAM.org                      |
|    \\/     M anipulation  |                                                 |
\*---------------------------------------------------------------------------*/
FoamFile
{
    version     2.0;
    format      ascii;
    class       volScalarField;
    location    "0.07";
    object      mut;
}
// * * * * * * * * * * * * * * * * * * * * * * * * * * * * * * * * * * * * * //

dimensions      [1 -1 -1 0 0 0 0];

internalField   nonuniform List<scalar> 
1250
(
0.0365546
0.0208667
0.0128069
0.00837526
0.0059826
0.00466738
0.0038479
0.00328628
0.00285676
0.00250591
0.00222144
0.00201131
0.0018273
0.0016699
0.0015335
0.00140732
0.0013089
0.00122548
0.00115138
0.00108404
0.00102271
0.000967025
0.000917228
0.000876908
0.000836478
0.000798325
0.000764049
0.000733158
0.000705819
0.000681683
0.000658904
0.000641629
0.00062368
0.000608578
0.000604875
0.000583915
0.000580293
0.000602179
0.000633377
0.00073096
0.00113722
0.00150588
0.00188309
0.00145996
0.0011127
0.00145275
0.00185734
0.00197469
0.00199359
0.00199549
0.0351345
0.0190106
0.0113331
0.00736761
0.00534147
0.00424554
0.0035637
0.00308486
0.0026909
0.00238127
0.00213081
0.0019394
0.00177081
0.001625
0.00149341
0.00137943
0.00128569
0.00120645
0.00113513
0.00107042
0.0010114
0.000957505
0.000909412
0.000870472
0.000832867
0.000795301
0.000761738
0.000731359
0.000704541
0.000680752
0.000658359
0.00064134
0.000623491
0.000608749
0.000605123
0.000584338
0.000580946
0.000603118
0.000634592
0.000733381
0.0011431
0.00150913
0.0018849
0.00145805
0.0011132
0.00145455
0.00185806
0.00197468
0.00199343
0.0019953
0.0312991
0.0148331
0.00838124
0.00555217
0.00424867
0.00353267
0.00306507
0.00268632
0.0023933
0.00215627
0.00196173
0.00180182
0.00165943
0.00153189
0.00142037
0.0013211
0.00123839
0.00116707
0.00110197
0.0010424
0.000987834
0.000937853
0.000893071
0.000857014
0.000823988
0.00078897
0.000756767
0.00072743
0.000701685
0.000678652
0.000657115
0.000640684
0.000623137
0.000609061
0.000605589
0.000585179
0.00058249
0.000604577
0.000637344
0.000739367
0.0011569
0.00151654
0.00188876
0.0014523
0.00111485
0.00145989
0.00186011
0.00197473
0.00199308
0.00199489
0.0229898
0.00902178
0.00511533
0.00380036
0.00321907
0.00280494
0.00252336
0.00227104
0.00207998
0.00190791
0.00176039
0.00163715
0.00152543
0.00142276
0.00132973
0.00124657
0.001177
0.00111524
0.00105782
0.00100481
0.000956195
0.000911323
0.000871081
0.000838411
0.000808901
0.000780302
0.000749769
0.000722106
0.000697633
0.000675703
0.000655394
0.00063983
0.000622959
0.000609568
0.000606242
0.000586394
0.000585194
0.000607384
0.000641509
0.000749085
0.00117853
0.00152825
0.00189353
0.00144267
0.00111802
0.00146948
0.00186365
0.00197487
0.00199256
0.00199428
0.0101658
0.00385087
0.00306877
0.00273288
0.00250017
0.00227511
0.00212286
0.00194957
0.00180623
0.00168167
0.0015768
0.00148178
0.00139409
0.00131268
0.00123654
0.00116734
0.00111038
0.00105769
0.00100845
0.000962584
0.000920364
0.000881188
0.000845686
0.000816682
0.00079065
0.000766052
0.000741411
0.000715486
0.000692637
0.000672135
0.00065326
0.000638655
0.000622808
0.000610519
0.000606925
0.000587995
0.000589176
0.000612326
0.000647892
0.000762836
0.00120626
0.00154335
0.0018972
0.00142933
0.00112283
0.0014833
0.00186859
0.00197507
0.00199186
0.00199345
0.00220879
0.00227093
0.00228077
0.00216744
0.0020635
0.0019149
0.00179779
0.00168127
0.00157753
0.00148939
0.00141594
0.0013453
0.00127808
0.00121079
0.00114778
0.00109106
0.00104441
0.00100018
0.000958399
0.00091932
0.000883295
0.000849634
0.0008189
0.000793386
0.000770797
0.00074938
0.000729005
0.000707898
0.000686842
0.000667864
0.0006507
0.000637361
0.000622707
0.000612065
0.000608065
0.000590049
0.000594693
0.00061898
0.000657179
0.000781483
0.00123889
0.00156183
0.00189938
0.00141173
0.00112968
0.00150131
0.00187475
0.00197529
0.00199098
0.00199242
0.000828586
0.00149003
0.00174354
0.00177277
0.00175466
0.00164058
0.00155879
0.0014746
0.0013949
0.00132878
0.00127128
0.00121598
0.00116371
0.0011143
0.00106693
0.0010208
0.000982044
0.00094497
0.00090985
0.000876967
0.000846626
0.000818023
0.000791578
0.000769396
0.000750075
0.000731722
0.000714322
0.000697471
0.000680168
0.000663041
0.000647678
0.000635596
0.000622426
0.000613737
0.000609786
0.000593204
0.000601924
0.000627556
0.000670225
0.000806352
0.00127489
0.00158355
0.00189804
0.00139103
0.00113912
0.00152342
0.00188193
0.0019755
0.0019899
0.00199117
0.000338017
0.00103365
0.00133206
0.00143744
0.00146016
0.00140664
0.00135282
0.00129242
0.00123403
0.00118712
0.00114375
0.0011018
0.00106164
0.00102356
0.000987928
0.000956501
0.000924389
0.000893487
0.000864157
0.000836665
0.000810962
0.000786788
0.000764409
0.000745177
0.000728871
0.000713386
0.00069874
0.000684826
0.000671701
0.000657291
0.00064396
0.000633371
0.000621954
0.000615305
0.000611573
0.000597877
0.000612045
0.00063874
0.000686317
0.000839932
0.00131177
0.00160664
0.00189265
0.00136705
0.00115179
0.00154927
0.00188981
0.00197561
0.00198862
0.00198971
0.000341768
0.000753129
0.000996343
0.00111941
0.00118017
0.00118453
0.00115784
0.00112913
0.00109094
0.00106138
0.00102939
0.000997935
0.000967466
0.000938954
0.000912769
0.000890515
0.000868192
0.000842891
0.000818923
0.00079643
0.00077538
0.000755589
0.000737126
0.000720926
0.000707457
0.00069464
0.000682624
0.000671299
0.000660825
0.000650594
0.00063937
0.000630391
0.000621078
0.000616681
0.000613471
0.000603703
0.000623824
0.000651399
0.000706081
0.000887203
0.0013426
0.0016292
0.00187857
0.00134395
0.00116843
0.00157821
0.001898
0.00197557
0.00198712
0.00198801
0.000647016
0.000682151
0.00076562
0.000857561
0.000929767
0.000963052
0.000967966
0.000963919
0.00094315
0.00092834
0.000906433
0.000887456
0.000867767
0.000848351
0.000831382
0.000820153
0.000807119
0.000788972
0.000771046
0.000753875
0.000737894
0.000722964
0.000709081
0.000696506
0.000685644
0.000675453
0.000665909
0.000657044
0.000649041
0.000641327
0.000633852
0.000626732
0.000619731
0.000617655
0.000615519
0.000610963
0.00063702
0.000665574
0.000729616
0.000943464
0.00136755
0.00165254
0.00185654
0.00132051
0.00118951
0.00160927
0.00190608
0.00197528
0.00198538
0.00198608
0.00285335
0.00112663
0.000736184
0.000685204
0.000725579
0.000768994
0.000794684
0.000809468
0.00081326
0.000815306
0.000798865
0.000790313
0.000777568
0.000764979
0.000755281
0.000750361
0.000743343
0.000732643
0.000721924
0.000711108
0.000700482
0.000690162
0.000680339
0.000671186
0.000662968
0.000655361
0.000648312
0.000641857
0.000636214
0.000631073
0.000626746
0.000622064
0.000617891
0.000618324
0.000618028
0.000620199
0.000651805
0.000682204
0.000757601
0.00100753
0.00138779
0.00167734
0.00182874
0.00129769
0.00121617
0.00164235
0.00191391
0.00197467
0.00198332
0.00198382
0.00580827
0.00234465
0.0011333
0.000713613
0.000618285
0.000617353
0.000638652
0.000666051
0.000682058
0.000695396
0.000699165
0.000704136
0.000700487
0.000697984
0.000697925
0.000692169
0.000684772
0.000678409
0.000672405
0.000666132
0.000659791
0.000653608
0.000647608
0.000641906
0.000636795
0.000632255
0.000628094
0.000624499
0.000621605
0.000619202
0.000617654
0.000616196
0.000615374
0.000618899
0.000621937
0.000632747
0.000668534
0.000703809
0.000792246
0.00107648
0.00141119
0.00170222
0.00179182
0.00127351
0.00125151
0.00167908
0.00192175
0.00197359
0.00198074
0.00198104
0.00777179
0.00411557
0.00219601
0.00122429
0.00077273
0.000595701
0.000546062
0.000546809
0.000561603
0.000580796
0.000593987
0.000605325
0.000612002
0.000617159
0.000622985
0.000622113
0.000622891
0.000623895
0.000622144
0.000619439
0.000616729
0.00061419
0.000611212
0.000608522
0.000606759
0.000605476
0.000604495
0.000604041
0.000604234
0.000605063
0.000606889
0.000608978
0.000612734
0.000620054
0.000628265
0.000648993
0.000686956
0.000730915
0.000840035
0.00114691
0.00144458
0.00172803
0.00173933
0.00124776
0.00129999
0.00172079
0.0019296
0.00197185
0.0019774
0.00197747
0.00888386
0.00586973
0.00373558
0.0023563
0.00147567
0.000952479
0.000672953
0.000549366
0.000504656
0.000495145
0.000500223
0.000511269
0.000522198
0.000532287
0.000541926
0.000547817
0.0005533
0.000559265
0.000561624
0.000562974
0.000565613
0.000567917
0.000568773
0.000570078
0.00057216
0.000574789
0.000577456
0.000580579
0.00058441
0.000589032
0.000594465
0.000601052
0.000610617
0.000623591
0.000640229
0.000669902
0.000708725
0.000771532
0.000912648
0.00121277
0.00148523
0.00175294
0.00165794
0.00122917
0.00136669
0.00176704
0.00193691
0.00196907
0.00197297
0.00197281
0.00952149
0.00728349
0.0053645
0.0038556
0.00272189
0.0018891
0.00129806
0.000909468
0.000675725
0.000548471
0.00049055
0.000467923
0.000463635
0.000465892
0.000472733
0.000479986
0.000487305
0.000495237
0.000501158
0.000505803
0.000511853
0.000517395
0.000521882
0.000527622
0.000533767
0.000540969
0.000547465
0.000554687
0.000562309
0.000571287
0.000582057
0.000594904
0.00061175
0.000632905
0.000658151
0.000695528
0.000745352
0.000834129
0.00100731
0.00127246
0.00152238
0.00176747
0.00155606
0.00122491
0.00145633
0.0018153
0.00194256
0.00196467
0.00196696
0.00196655
0.00990238
0.00831603
0.00677325
0.00539402
0.00420911
0.00321893
0.00242447
0.00179672
0.00132342
0.000982017
0.000750753
0.000603783
0.000521467
0.000473956
0.000450006
0.000440037
0.000438015
0.000440821
0.000445972
0.000452157
0.000459619
0.000468041
0.000476832
0.000486004
0.000496182
0.000506199
0.000516617
0.000528861
0.000542406
0.000557908
0.000575679
0.000596401
0.000621597
0.000651786
0.000688222
0.000737632
0.000808626
0.00092052
0.0011041
0.00133051
0.0015608
0.00174645
0.00144221
0.00125257
0.00156931
0.00186035
0.00194478
0.00195769
0.00195848
0.00195785
0.0101369
0.0090292
0.00785758
0.00671169
0.00563824
0.00466067
0.00378819
0.00303439
0.00240233
0.00187623
0.00146173
0.00114042
0.000898203
0.000723124
0.000603938
0.00052589
0.000475276
0.000444808
0.00042926
0.000423711
0.000424895
0.000430954
0.000440295
0.000451857
0.000465466
0.000480786
0.000497531
0.000516177
0.00053697
0.000560291
0.000586556
0.000616482
0.000651354
0.000692146
0.000741931
0.000806972
0.000894571
0.00101849
0.00118823
0.00137806
0.00159051
0.00166016
0.00134621
0.00135252
0.00169487
0.00189486
0.00194118
0.00194654
0.00194609
0.00194526
0.0102823
0.00949895
0.00862319
0.00771378
0.0068073
0.00593086
0.00510265
0.00433487
0.00363538
0.0030196
0.00249187
0.00203501
0.00164907
0.00133397
0.00108718
0.000890205
0.00073943
0.000629934
0.000555615
0.000505829
0.000476939
0.000464858
0.000464169
0.000471226
0.000483771
0.000500467
0.00052061
0.000543873
0.000570225
0.000599967
0.000633148
0.000670446
0.00071289
0.000762085
0.000821724
0.000896748
0.000991788
0.00111038
0.0012538
0.00141988
0.00159062
0.00151245
0.00131761
0.00151764
0.00180279
0.00191006
0.00192857
0.00192868
0.00192731
0.00192627
0.0103709
0.00978209
0.00911073
0.00838662
0.00763529
0.00687909
0.00613608
0.00542079
0.00474681
0.004117
0.00353574
0.00300722
0.002546
0.00213968
0.00178757
0.00149016
0.00124564
0.00105252
0.000897533
0.000777112
0.000691589
0.000643938
0.000618284
0.000607551
0.0006078
0.000616443
0.000631299
0.0006513
0.000676163
0.000704925
0.000737541
0.000774817
0.000817365
0.000867414
0.000927529
0.00100173
0.00108929
0.00119004
0.00130396
0.0014494
0.00151911
0.00137913
0.00142435
0.00169968
0.00186182
0.00190048
0.00190272
0.00189982
0.00189784
0.00189655
0.0104131
0.00991548
0.00935448
0.00873777
0.00808997
0.0074289
0.0067706
0.00612533
0.00550101
0.00490319
0.00433583
0.00380205
0.00330501
0.00284694
0.00244071
0.00208736
0.00177792
0.00151716
0.00130675
0.0011402
0.00100479
0.000917021
0.000868434
0.000838643
0.000822998
0.000817723
0.00082064
0.000829913
0.000844693
0.000863983
0.000887898
0.000916715
0.000951394
0.000993353
0.0010448
0.00110679
0.00117382
0.0012486
0.0013489
0.00142656
0.00139384
0.00141065
0.00163618
0.00180746
0.00185851
0.00186177
0.00185681
0.00185246
0.00185005
0.0018484
0.0104066
0.00989709
0.00933218
0.0087348
0.00812288
0.00751063
0.00691017
0.00632796
0.00576605
0.00522509
0.00470506
0.00420476
0.00373617
0.00329029
0.00287234
0.0024871
0.00214177
0.00184837
0.00160855
0.00142079
0.00126685
0.00115611
0.00109776
0.00106104
0.00103901
0.00102721
0.0010226
0.00102335
0.00102812
0.00103661
0.00105058
0.00106872
0.0010919
0.00112098
0.00115841
0.00119669
0.00124349
0.00130834
0.00135201
0.00137283
0.00143438
0.00161702
0.00175336
0.00179527
0.00179428
0.00178556
0.00177836
0.00177334
0.00177051
0.00176831
0.0103142
0.00962288
0.00890464
0.00821242
0.00756688
0.00697154
0.00642195
0.00591168
0.00543271
0.00497752
0.00454203
0.00412586
0.00372506
0.00333541
0.0029648
0.00260713
0.00228023
0.00199275
0.00175275
0.00156408
0.00141656
0.00130395
0.00124564
0.00121257
0.00119334
0.00118358
0.00118005
0.00118047
0.0011834
0.00118814
0.00119459
0.00120501
0.00122008
0.00123557
0.00125463
0.00128651
0.00131302
0.00134488
0.00139216
0.0014824
0.00160146
0.00167254
0.00168683
0.00167618
0.00166259
0.00165182
0.0016443
0.00163894
0.00163553
0.00163253
0.0098994
0.00861133
0.00756291
0.00672316
0.00606752
0.00553932
0.00509502
0.00471478
0.00437817
0.00406653
0.00376962
0.00348143
0.00319852
0.00291739
0.00263753
0.00236547
0.00211538
0.00189198
0.00169682
0.00154223
0.00142496
0.00132968
0.00127883
0.00125784
0.00124741
0.00124503
0.00124773
0.00125327
0.00126006
0.00126722
0.0012745
0.00128
0.00128849
0.00130102
0.00131494
0.00133346
0.00135619
0.00140298
0.00145137
0.00148468
0.00149127
0.00147794
0.00145902
0.00144175
0.0014286
0.00141874
0.00141168
0.00140621
0.00140241
0.00139888
0.00742137
0.00519509
0.0042245
0.00365199
0.00330648
0.00303363
0.00283324
0.00268186
0.00254592
0.00241817
0.00229406
0.00217172
0.00205752
0.00193494
0.00178479
0.00163024
0.00150831
0.00139227
0.00128773
0.00120749
0.00115427
0.00111464
0.00109467
0.00109063
0.00108538
0.00108959
0.00109901
0.00111132
0.00112466
0.00113558
0.00114765
0.0011506
0.00114596
0.00113941
0.00113075
0.00111955
0.0011054
0.00109593
0.00109838
0.00108151
0.00106139
0.00104057
0.00102449
0.00101269
0.00100377
0.000996855
0.000991598
0.000987126
0.000984203
0.000981477
0.000679147
0.000631285
0.000574635
0.000529148
0.000491984
0.000462208
0.000431925
0.000407732
0.00039034
0.000374377
0.000359554
0.000345597
0.000332335
0.000319604
0.000307354
0.000295871
0.000285593
0.00027685
0.000269895
0.000264771
0.000261289
0.000259162
0.000258191
0.000258048
0.000258414
0.000259074
0.000259843
0.000260579
0.000261167
0.00026147
0.000261463
0.000261109
0.000260467
0.000259595
0.000258587
0.000257537
0.000256514
0.000255539
0.000254647
0.000253851
0.00025322
0.000252676
0.000252191
0.000251784
0.000251462
0.000251203
0.000250998
0.000250831
0.000250707
0.0002506
)
;

boundaryField
{
    AXIS
    {
        type            empty;
    }
    OUTLET
    {
        type            calculated;
        value           nonuniform List<scalar> 
25
(
0.00199549
0.0019953
0.00199489
0.00199428
0.00199345
0.00199242
0.00199117
0.0019897
0.00198801
0.00198608
0.00198382
0.00198103
0.00197746
0.0019728
0.00196655
0.00195785
0.00194525
0.00192627
0.00189655
0.0018484
0.00176831
0.00163253
0.00139888
0.000981476
0.0002506
)
;
    }
    COFLOW
    {
        type            calculated;
        value           nonuniform List<scalar> 
15
(
0.0106227
0.0106227
0.0106226
0.0106225
0.0106225
0.0106225
0.0106225
0.0106225
0.0106225
0.0106225
0.0106225
0.0106225
0.0106224
0.0106224
0.0106225
)
;
    }
    PILOT
    {
        type            calculated;
        value           nonuniform List<scalar> 5(0.00141096 0.00141099 0.00141111 0.00141116 0.00141119);
    }
    FUEL
    {
        type            calculated;
        value           nonuniform List<scalar> 5(0.0472863 0.047285 0.0472908 0.0473077 0.0473182);
    }
    WALL
    {
        type            mutkWallFunction;
        Cmu             0.09;
        kappa           0.41;
        E               9.8;
        value           nonuniform List<scalar> 
50
(
8.1783e-05
7.57499e-05
6.85342e-05
6.26745e-05
5.78375e-05
5.39256e-05
4.99119e-05
4.66743e-05
4.43259e-05
4.2155e-05
4.01252e-05
3.82007e-05
3.6359e-05
3.45782e-05
3.28523e-05
3.12215e-05
2.9747e-05
2.84763e-05
2.74465e-05
2.66657e-05
2.61094e-05
2.57414e-05
2.55369e-05
2.54535e-05
2.54509e-05
2.55027e-05
2.55871e-05
2.56875e-05
2.57897e-05
2.58736e-05
2.59366e-05
2.59716e-05
2.59795e-05
2.59603e-05
2.59184e-05
2.586e-05
2.57888e-05
2.57058e-05
2.56167e-05
2.55266e-05
2.54512e-05
2.53813e-05
2.53149e-05
2.52579e-05
2.52127e-05
2.51762e-05
2.51473e-05
2.51236e-05
2.51061e-05
2.5091e-05
)
;
    }
    front
    {
        type            wedge;
    }
    back
    {
        type            wedge;
    }
}


// ************************************************************************* //
