/*--------------------------------*- C++ -*----------------------------------*\
| =========                 |                                                 |
| \\      /  F ield         | OpenFOAM: The Open Source CFD Toolbox           |
|  \\    /   O peration     | Version:  2.4.x                                 |
|   \\  /    A nd           | Web:      www.OpenFOAM.org                      |
|    \\/     M anipulation  |                                                 |
\*---------------------------------------------------------------------------*/
FoamFile
{
    version     2.0;
    format      ascii;
    class       surfaceScalarField;
    location    "0.07";
    object      phi;
}
// * * * * * * * * * * * * * * * * * * * * * * * * * * * * * * * * * * * * * //

dimensions      [1 0 -1 0 0 0 0];

internalField   nonuniform List<scalar> 
2425
(
1.06638e-06
-1.55482e-08
1.03596e-06
3.04471e-08
9.77252e-07
5.87264e-08
9.10593e-07
6.6675e-08
8.44612e-07
6.59952e-08
7.82441e-07
6.21829e-08
7.28354e-07
5.40992e-08
6.78566e-07
4.98008e-08
6.32505e-07
4.60737e-08
5.87892e-07
4.46229e-08
5.47463e-07
4.0438e-08
5.1259e-07
3.4882e-08
4.80023e-07
3.25753e-08
4.51308e-07
2.87203e-08
4.24975e-07
2.6339e-08
4.01445e-07
2.35338e-08
3.80188e-07
2.12627e-08
3.61605e-07
1.85901e-08
3.44342e-07
1.72705e-08
3.28221e-07
1.61258e-08
3.13578e-07
1.46483e-08
2.99916e-07
1.36665e-08
2.87579e-07
1.23427e-08
2.75721e-07
1.18648e-08
2.64339e-07
1.13871e-08
2.53768e-07
1.05758e-08
2.44044e-07
9.72965e-09
2.35077e-07
8.97234e-09
2.26749e-07
8.33361e-09
2.19055e-07
7.7037e-09
2.11848e-07
7.21307e-09
2.0514e-07
6.7202e-09
1.98891e-07
6.26316e-09
1.92808e-07
6.07824e-09
1.86824e-07
6.01739e-09
1.80556e-07
6.24815e-09
1.738e-07
6.75401e-09
1.66091e-07
7.8704e-09
1.55998e-07
1.01668e-08
1.41453e-07
1.46573e-08
1.23803e-07
1.97485e-08
1.13719e-07
1.81514e-08
1.21927e-07
1.35503e-08
1.578e-07
1.61253e-08
1.95078e-07
1.70595e-08
2.0417e-07
7.53684e-09
2.02581e-07
5.17806e-09
2.00195e-07
3.11938e-09
1.98151e-07
2.19308e-09
1.13353e-09
3.21225e-06
-7.53892e-08
3.07437e-06
1.68396e-07
2.87695e-06
2.56209e-07
2.67226e-06
2.71413e-07
2.47445e-06
2.63844e-07
2.29588e-06
2.40798e-07
2.13669e-06
2.13316e-07
1.98944e-06
1.97094e-07
1.84821e-06
1.87342e-07
1.71999e-06
1.72873e-07
1.6048e-06
1.55651e-07
1.50223e-06
1.37478e-07
1.40979e-06
1.25044e-07
1.32632e-06
1.12198e-07
1.25127e-06
1.0141e-07
1.18274e-06
9.20782e-08
1.12191e-06
8.21064e-08
1.06721e-06
7.33125e-08
1.01731e-06
6.71918e-08
9.71123e-07
6.23239e-08
9.28137e-07
5.76482e-08
8.8855e-07
5.32675e-08
8.52287e-07
4.86216e-08
8.18573e-07
4.56002e-08
7.8548e-07
4.44931e-08
7.54392e-07
4.1678e-08
7.25893e-07
3.82447e-08
6.99468e-07
3.5414e-08
6.75025e-07
3.27936e-08
6.52347e-07
3.04123e-08
6.31115e-07
2.84635e-08
6.11305e-07
2.65671e-08
5.92842e-07
2.47662e-08
5.74951e-07
2.39614e-08
5.57308e-07
2.37566e-08
5.38879e-07
2.46239e-08
5.1894e-07
2.66918e-08
4.96238e-07
3.10391e-08
4.66687e-07
3.99349e-08
4.24456e-07
5.74621e-08
3.73461e-07
7.69315e-08
3.44767e-07
7.10566e-08
3.68822e-07
5.5605e-08
4.76113e-07
6.49626e-08
5.87696e-07
6.80102e-08
6.13685e-07
3.12017e-08
6.0863e-07
2.09459e-08
6.01325e-07
1.26154e-08
5.95132e-07
8.83185e-09
4.58678e-09
5.2596e-06
-8.03323e-08
4.91799e-06
5.10127e-07
4.54365e-06
6.30639e-07
4.20052e-06
6.14624e-07
3.89445e-06
5.69974e-07
3.61996e-06
5.1535e-07
3.35792e-06
4.75411e-07
3.11574e-06
4.39331e-07
2.90006e-06
4.0308e-07
2.70695e-06
3.66023e-07
2.53384e-06
3.28801e-07
2.37894e-06
2.92423e-07
2.23952e-06
2.6451e-07
2.11329e-06
2.38454e-07
1.99856e-06
2.16164e-07
1.89483e-06
1.95829e-07
1.80167e-06
1.75287e-07
1.71734e-06
1.57677e-07
1.63984e-06
1.4472e-07
1.56799e-06
1.34197e-07
1.50137e-06
1.24289e-07
1.43964e-06
1.15025e-07
1.38315e-06
1.05134e-07
1.33148e-06
9.73094e-08
1.28124e-06
9.47676e-08
1.23223e-06
9.07132e-08
1.1867e-06
8.37957e-08
1.14464e-06
7.74987e-08
1.10566e-06
7.18086e-08
1.06939e-06
6.67271e-08
1.03544e-06
6.24476e-08
1.00357e-06
5.84978e-08
9.73772e-07
5.46325e-08
9.45045e-07
5.26786e-08
9.16707e-07
5.22523e-08
8.86977e-07
5.42658e-08
8.54739e-07
5.89437e-08
8.18002e-07
6.84651e-08
7.70491e-07
8.7884e-08
7.03001e-07
1.26208e-07
6.21749e-07
1.69356e-07
5.77453e-07
1.55816e-07
6.19308e-07
1.26493e-07
7.9802e-07
1.47072e-07
9.8213e-07
1.52425e-07
1.02414e-06
7.07877e-08
1.01529e-06
4.74136e-08
1.00297e-06
2.85358e-08
9.92648e-07
1.9893e-08
1.03221e-08
6.93653e-06
3.42283e-07
6.23857e-06
1.20823e-06
5.70347e-06
1.16586e-06
5.27854e-06
1.03966e-06
4.8853e-06
9.63295e-07
4.52478e-06
8.75943e-07
4.2093e-06
7.90963e-07
3.93135e-06
7.17358e-07
3.68253e-06
6.51979e-07
3.45914e-06
5.89475e-07
3.25872e-06
5.29272e-07
3.07738e-06
4.73818e-07
2.9117e-06
4.30242e-07
2.76046e-06
3.89735e-07
2.62253e-06
3.54119e-07
2.49719e-06
3.21203e-07
2.38357e-06
2.88939e-07
2.27932e-06
2.61965e-07
2.18257e-06
2.41516e-07
2.09266e-06
2.24144e-07
2.009e-06
2.07976e-07
1.93135e-06
1.92707e-07
1.86015e-06
1.76369e-07
1.79482e-06
1.62688e-07
1.73382e-06
1.55821e-07
1.67338e-06
1.51181e-07
1.61385e-06
1.43362e-07
1.55886e-06
1.32519e-07
1.50772e-06
1.22998e-07
1.46013e-06
1.14387e-07
1.41555e-06
1.07074e-07
1.37358e-06
1.00563e-07
1.33381e-06
9.44961e-08
1.29543e-06
9.10574e-08
1.25786e-06
9.00314e-08
1.21825e-06
9.37687e-08
1.17512e-06
1.02143e-07
1.12576e-06
1.18798e-07
1.06226e-06
1.52059e-07
9.72539e-07
2.19152e-07
8.65438e-07
2.91879e-07
8.09832e-07
2.7182e-07
8.72192e-07
2.22638e-07
1.1243e-06
2.61664e-07
1.37858e-06
2.68497e-07
1.43494e-06
1.25946e-07
1.42221e-06
8.42356e-08
1.40491e-06
5.07813e-08
1.39055e-06
3.52637e-08
1.8299e-08
7.10453e-06
2.70156e-06
6.29943e-06
2.01349e-06
5.88812e-06
1.57732e-06
5.49811e-06
1.42979e-06
5.16963e-06
1.29189e-06
4.87886e-06
1.1668e-06
4.61176e-06
1.05816e-06
4.36599e-06
9.63221e-07
4.13771e-06
8.80361e-07
3.92813e-06
7.99118e-07
3.73632e-06
7.21151e-07
3.558e-06
6.52214e-07
3.39299e-06
5.95321e-07
3.23962e-06
5.43145e-07
3.09596e-06
4.97826e-07
2.96403e-06
4.53166e-07
2.8434e-06
4.0961e-07
2.73076e-06
3.74652e-07
2.62557e-06
3.46767e-07
2.52702e-06
3.22736e-07
2.43485e-06
3.00196e-07
2.34864e-06
2.78956e-07
2.26905e-06
2.56e-07
2.19569e-06
2.36109e-07
2.12724e-06
2.24335e-07
2.06219e-06
2.16299e-07
1.99662e-06
2.08975e-07
1.93213e-06
1.97062e-07
1.8722e-06
1.82991e-07
1.81626e-06
1.70412e-07
1.76359e-06
1.59828e-07
1.71393e-06
1.50349e-07
1.66643e-06
1.42116e-07
1.62e-06
1.37594e-07
1.57472e-06
1.35565e-07
1.52703e-06
1.41339e-07
1.4748e-06
1.54541e-07
1.41465e-06
1.80158e-07
1.33783e-06
2.299e-07
1.22941e-06
3.33431e-07
1.10172e-06
4.39699e-07
1.03984e-06
4.17173e-07
1.12745e-06
3.39983e-07
1.45655e-06
4.06651e-07
1.77745e-06
4.13382e-07
1.84608e-06
1.95889e-07
1.82935e-06
1.30952e-07
1.80715e-06
7.91561e-08
1.78893e-06
5.47471e-08
2.84127e-08
3.30837e-06
-3.13502e-09
4.34762e-06
9.74376e-07
4.70032e-06
1.22478e-06
4.76565e-06
1.36462e-06
4.72792e-06
1.32976e-06
4.63318e-06
1.26166e-06
4.50642e-06
1.18502e-06
4.36694e-06
1.10281e-06
4.22609e-06
1.02132e-06
4.08844e-06
9.36861e-07
3.95297e-06
8.56694e-07
3.81692e-06
7.88351e-07
3.67925e-06
7.3308e-07
3.5412e-06
6.81251e-07
3.40885e-06
6.30228e-07
3.28585e-06
5.76221e-07
3.17177e-06
5.23748e-07
3.06317e-06
4.83306e-07
2.96018e-06
4.49816e-07
2.86268e-06
4.20295e-07
2.77059e-06
3.92343e-07
2.68356e-06
3.66042e-07
2.60216e-06
3.37457e-07
2.5265e-06
3.11838e-07
2.45538e-06
2.95539e-07
2.38851e-06
2.83252e-07
2.32353e-06
2.74039e-07
2.25727e-06
2.63387e-07
2.19217e-06
2.48175e-07
2.13128e-06
2.31419e-07
2.07394e-06
2.17276e-07
2.01961e-06
2.04859e-07
1.96712e-06
1.94759e-07
1.91505e-06
1.89846e-07
1.86343e-06
1.87572e-07
1.80913e-06
1.95543e-07
1.74981e-06
2.14195e-07
1.68135e-06
2.50071e-07
1.59431e-06
3.1996e-07
1.47079e-06
4.66742e-07
1.32874e-06
6.0765e-07
1.26629e-06
5.89247e-07
1.38488e-06
4.80531e-07
1.79551e-06
5.89207e-07
2.17893e-06
5.82733e-07
2.25733e-06
2.79542e-07
2.23662e-06
1.86837e-07
2.20972e-06
1.13327e-07
2.18788e-06
7.80984e-08
4.0564e-08
1.51728e-06
-8.06976e-07
2.61755e-06
-1.25747e-07
3.33904e-06
5.03476e-07
3.76341e-06
9.40424e-07
3.98984e-06
1.10348e-06
4.09291e-06
1.15872e-06
4.1235e-06
1.15456e-06
4.10682e-06
1.11961e-06
4.06302e-06
1.06523e-06
4.00331e-06
9.96685e-07
3.93068e-06
9.2942e-07
3.84855e-06
8.70582e-07
3.76147e-06
8.20257e-07
3.67044e-06
7.72358e-07
3.57206e-06
7.2866e-07
3.47077e-06
6.77584e-07
3.37375e-06
6.20829e-07
3.27947e-06
5.77649e-07
3.18822e-06
5.41139e-07
3.10042e-06
5.0817e-07
3.01608e-06
4.76742e-07
2.93474e-06
4.4745e-07
2.85724e-06
4.15013e-07
2.78461e-06
3.8456e-07
2.71603e-06
3.64206e-07
2.65088e-06
3.48496e-07
2.58894e-06
3.36081e-07
2.52714e-06
3.25283e-07
2.46366e-06
3.11774e-07
2.40163e-06
2.93598e-07
2.34275e-06
2.76317e-07
2.28665e-06
2.6119e-07
2.23211e-06
2.49508e-07
2.17766e-06
2.44597e-07
2.12227e-06
2.43408e-07
2.06264e-06
2.55223e-07
1.99823e-06
2.79605e-07
1.92531e-06
3.25401e-07
1.83068e-06
4.18681e-07
1.69501e-06
6.16816e-07
1.54604e-06
7.95188e-07
1.48842e-06
7.83536e-07
1.64374e-06
6.37377e-07
2.14044e-06
7.9946e-07
2.58254e-06
7.69859e-07
2.6685e-06
3.75117e-07
2.64398e-06
2.50974e-07
2.61265e-06
1.52893e-07
2.58743e-06
1.05029e-07
5.46351e-08
9.36984e-07
-9.20718e-07
1.59009e-06
-7.78673e-07
2.29749e-06
-2.03754e-07
2.84803e-06
3.90061e-07
3.22344e-06
7.28225e-07
3.46293e-06
9.19359e-07
3.61477e-06
1.00285e-06
3.70361e-06
1.03089e-06
3.75131e-06
1.01766e-06
3.76977e-06
9.78341e-07
3.76363e-06
9.35672e-07
3.73941e-06
8.94915e-07
3.70274e-06
8.57029e-07
3.65721e-06
8.17975e-07
3.60506e-06
7.80881e-07
3.54154e-06
7.41192e-07
3.46917e-06
6.93273e-07
3.39627e-06
6.50615e-07
3.32305e-06
6.14437e-07
3.25008e-06
5.81208e-07
3.17796e-06
5.48931e-07
3.10723e-06
5.18242e-07
3.03825e-06
4.84048e-07
2.9727e-06
4.50206e-07
2.91086e-06
4.26155e-07
2.8516e-06
4.07853e-07
2.79488e-06
3.92914e-07
2.74024e-06
3.80044e-07
2.68393e-06
3.68209e-07
2.62551e-06
3.52223e-07
2.56871e-06
3.33346e-07
2.51407e-06
3.16137e-07
2.4602e-06
3.03664e-07
2.40586e-06
2.99369e-07
2.34989e-06
2.99908e-07
2.28893e-06
3.16456e-07
2.22246e-06
3.47514e-07
2.14576e-06
4.04996e-07
2.04457e-06
5.25109e-07
1.90202e-06
7.78127e-07
1.75327e-06
9.93789e-07
1.70562e-06
9.94442e-07
1.9053e-06
8.11043e-07
2.49207e-06
1.03267e-06
2.98839e-06
9.67196e-07
3.07943e-06
4.80862e-07
3.05135e-06
3.22211e-07
3.01592e-06
1.97365e-07
2.98764e-06
1.35202e-07
7.04847e-08
7.9637e-07
-7.84084e-07
1.05051e-06
-1.03268e-06
1.60159e-06
-7.54726e-07
2.14128e-06
-1.49503e-07
2.56342e-06
3.06219e-07
2.87745e-06
6.05458e-07
3.10431e-06
7.76102e-07
3.2675e-06
8.67821e-07
3.38476e-06
9.00525e-07
3.46628e-06
8.96949e-07
3.5172e-06
8.84865e-07
3.54507e-06
8.6716e-07
3.55533e-06
8.46879e-07
3.55164e-06
8.21757e-07
3.53685e-06
7.95755e-07
3.51103e-06
7.67109e-07
3.47208e-06
7.32298e-07
3.42429e-06
6.9847e-07
3.3729e-06
6.6589e-07
3.31919e-06
6.34985e-07
3.26418e-06
6.03996e-07
3.2085e-06
5.73985e-07
3.15228e-06
5.40319e-07
3.09784e-06
5.04743e-07
3.04615e-06
4.77957e-07
2.99603e-06
4.58089e-07
2.94752e-06
4.4155e-07
2.90026e-06
4.27446e-07
2.85395e-06
4.14687e-07
2.80453e-06
4.01836e-07
2.75248e-06
3.85725e-07
2.70208e-06
3.66934e-07
2.65182e-06
3.54334e-07
2.60026e-06
3.51539e-07
2.54581e-06
3.55025e-07
2.48567e-06
3.7718e-07
2.41947e-06
4.15684e-07
2.34103e-06
4.86956e-07
2.23572e-06
6.37165e-07
2.09181e-06
9.45789e-07
1.94986e-06
1.19645e-06
1.91725e-06
1.22387e-06
2.17026e-06
9.95138e-07
2.85254e-06
1.2824e-06
3.39668e-06
1.16857e-06
3.48975e-06
5.95752e-07
3.45866e-06
3.99187e-07
3.41957e-06
2.46167e-07
3.38858e-06
1.68236e-07
8.79463e-08
9.55508e-07
-6.96909e-07
9.76885e-07
-1.05404e-06
1.27523e-06
-1.05315e-06
1.68099e-06
-5.55226e-07
2.06954e-06
-8.22488e-08
2.39361e-06
2.81479e-07
2.65411e-06
5.15699e-07
2.85559e-06
6.66442e-07
3.00711e-06
7.49108e-07
3.11938e-06
7.84777e-07
3.20341e-06
8.00942e-07
3.26496e-06
8.05711e-07
3.30914e-06
8.02809e-07
3.33997e-06
7.91009e-07
3.36396e-06
7.71859e-07
3.38059e-06
7.50625e-07
3.38046e-06
7.32554e-07
3.36535e-06
7.13695e-07
3.34196e-06
6.8939e-07
3.31307e-06
6.63969e-07
3.28059e-06
6.36551e-07
3.24568e-06
6.08954e-07
3.20816e-06
5.77898e-07
3.16899e-06
5.44014e-07
3.12998e-06
5.17079e-07
3.09129e-06
4.9691e-07
3.05305e-06
4.79949e-07
3.01535e-06
4.65332e-07
2.97794e-06
4.52335e-07
2.93925e-06
4.40803e-07
2.89738e-06
4.28044e-07
2.85354e-06
4.11328e-07
2.80893e-06
3.99556e-07
2.76229e-06
3.98979e-07
2.71151e-06
4.06656e-07
2.65432e-06
4.3551e-07
2.59036e-06
4.82246e-07
2.51206e-06
5.69629e-07
2.40559e-06
7.52483e-07
2.26523e-06
1.11621e-06
2.13713e-06
1.40004e-06
2.12516e-06
1.47271e-06
2.43972e-06
1.19328e-06
3.2218e-06
1.57124e-06
3.80595e-06
1.36871e-06
3.89935e-06
7.17778e-07
3.86589e-06
4.80556e-07
3.82364e-06
2.98643e-07
3.79035e-06
2.03721e-07
1.06834e-07
1.81886e-06
-1.5038e-07
1.53252e-06
-7.67712e-07
1.41812e-06
-9.38998e-07
1.56998e-06
-7.07245e-07
1.85446e-06
-3.66787e-07
2.15072e-06
-1.47825e-08
2.41734e-06
2.49111e-07
2.64691e-06
4.36933e-07
2.83722e-06
5.58871e-07
2.98242e-06
6.3966e-07
3.09231e-06
6.91108e-07
3.1792e-06
7.18883e-07
3.24808e-06
7.33992e-07
3.30234e-06
7.368e-07
3.35164e-06
7.2265e-07
3.39679e-06
7.05576e-07
3.42713e-06
7.02302e-07
3.4427e-06
6.98178e-07
3.44803e-06
6.841e-07
3.4453e-06
6.66731e-07
3.43622e-06
6.4566e-07
3.42217e-06
6.23037e-07
3.40328e-06
5.96835e-07
3.37985e-06
5.67519e-07
3.35396e-06
5.43091e-07
3.32709e-06
5.23955e-07
3.29974e-06
5.0752e-07
3.27197e-06
4.93395e-07
3.24352e-06
4.81137e-07
3.21435e-06
4.7041e-07
3.18189e-06
4.61048e-07
3.14525e-06
4.48774e-07
3.10642e-06
4.39274e-07
3.06432e-06
4.42255e-07
3.01659e-06
4.55642e-07
2.96183e-06
4.92168e-07
2.89873e-06
5.48871e-07
2.81746e-06
6.57013e-07
2.7066e-06
8.76446e-07
2.56749e-06
1.29373e-06
2.45381e-06
1.61563e-06
2.47193e-06
1.75136e-06
2.88185e-06
1.41192e-06
3.81639e-06
1.88673e-06
4.46911e-06
1.57325e-06
4.56725e-06
8.51971e-07
4.53016e-06
5.69825e-07
4.48272e-06
3.57353e-07
4.44545e-06
2.43427e-07
1.28124e-07
2.75368e-06
3.23752e-08
2.41735e-06
-4.31157e-07
2.05812e-06
-5.79958e-07
1.90768e-06
-5.57127e-07
1.97353e-06
-4.33116e-07
2.16496e-06
-2.06495e-07
2.39835e-06
1.55737e-08
2.63053e-06
2.04675e-07
2.8386e-06
3.50764e-07
3.0213e-06
4.56978e-07
3.17794e-06
5.34477e-07
3.30938e-06
5.87445e-07
3.41993e-06
6.23446e-07
3.51258e-06
6.44139e-07
3.5849e-06
6.50317e-07
3.63716e-06
6.53171e-07
3.67927e-06
6.60053e-07
3.71579e-06
6.61568e-07
3.74464e-06
6.55133e-07
3.76525e-06
6.46018e-07
3.77839e-06
6.32427e-07
3.78537e-06
6.1602e-07
3.78625e-06
5.95962e-07
3.78081e-06
5.73032e-07
3.77113e-06
5.5294e-07
3.75909e-06
5.36266e-07
3.74517e-06
5.21801e-07
3.7299e-06
5.09169e-07
3.71311e-06
4.98568e-07
3.6945e-06
4.89776e-07
3.67296e-06
4.83574e-07
3.6458e-06
4.77231e-07
3.61412e-06
4.72486e-07
3.5779e-06
4.80284e-07
3.53395e-06
5.01653e-07
3.48146e-06
5.47969e-07
3.4175e-06
6.17911e-07
3.33031e-06
7.5352e-07
3.21152e-06
1.01656e-06
3.07138e-06
1.48801e-06
2.97663e-06
1.85391e-06
3.04653e-06
2.05976e-06
3.6196e-06
1.69755e-06
4.79555e-06
2.24328e-06
5.55828e-06
1.78738e-06
5.66581e-06
1.00623e-06
5.62349e-06
6.71644e-07
5.56781e-06
4.26062e-07
5.52412e-06
2.89983e-07
1.53268e-07
3.58384e-06
9.84739e-08
3.31707e-06
-1.63841e-07
2.9965e-06
-2.59251e-07
2.71371e-06
-2.74598e-07
2.53733e-06
-2.57391e-07
2.50435e-06
-1.74192e-07
2.58411e-06
-6.4834e-08
2.73277e-06
5.5567e-08
2.91069e-06
1.72511e-07
3.09173e-06
2.7573e-07
3.25959e-06
3.66392e-07
3.41008e-06
4.36753e-07
3.54529e-06
4.88043e-07
3.66499e-06
5.24231e-07
3.76708e-06
5.47949e-07
3.85317e-06
5.66752e-07
3.92816e-06
5.84692e-07
3.99287e-06
5.96434e-07
4.04648e-06
6.0107e-07
4.09e-06
6.02068e-07
4.12488e-06
5.97179e-07
4.15241e-06
5.88211e-07
4.17289e-06
5.75348e-07
4.18793e-06
5.5805e-07
4.19951e-06
5.41631e-07
4.20804e-06
5.28222e-07
4.21359e-06
5.16945e-07
4.21664e-06
5.07048e-07
4.21706e-06
4.99323e-07
4.21468e-06
4.9355e-07
4.20824e-06
4.91779e-07
4.19506e-06
4.92582e-07
4.17528e-06
4.94714e-07
4.14933e-06
5.09164e-07
4.1149e-06
5.39539e-07
4.06916e-06
5.99211e-07
4.00697e-06
6.87918e-07
3.91604e-06
8.59427e-07
3.79375e-06
1.17406e-06
3.66372e-06
1.69298e-06
3.60507e-06
2.11208e-06
3.76584e-06
2.40852e-06
4.5786e-06
2.05402e-06
6.04845e-06
2.62451e-06
6.92122e-06
2.00076e-06
7.03604e-06
1.17989e-06
6.98881e-06
7.85404e-07
6.92464e-06
5.05053e-07
6.87418e-06
3.43752e-07
1.82512e-07
4.53457e-06
1.06309e-07
4.36565e-06
5.96177e-09
4.12841e-06
-2.15068e-08
3.87186e-06
-1.79125e-08
3.61539e-06
-1.20255e-09
3.40596e-06
3.4595e-08
3.27058e-06
6.95467e-08
3.2231e-06
1.01946e-07
3.25008e-06
1.44365e-07
3.33026e-06
1.94545e-07
3.44398e-06
2.51773e-07
3.57223e-06
3.07632e-07
3.70455e-06
3.54913e-07
3.83211e-06
3.95802e-07
3.94803e-06
4.31056e-07
4.05404e-06
4.59699e-07
4.15239e-06
4.85192e-07
4.24165e-06
5.05997e-07
4.32132e-06
5.20203e-07
4.39219e-06
5.30073e-07
4.45489e-06
5.33553e-07
4.51012e-06
5.32346e-07
4.5584e-06
5.26826e-07
4.60148e-06
5.1515e-07
4.64086e-06
5.02838e-07
4.67636e-06
4.93697e-07
4.70791e-06
4.86797e-07
4.73598e-06
4.80837e-07
4.76019e-06
4.77396e-07
4.77882e-06
4.77571e-07
4.79145e-06
4.82386e-07
4.79796e-06
4.89689e-07
4.79708e-06
4.99877e-07
4.78675e-06
5.24245e-07
4.766e-06
5.66184e-07
4.73161e-06
6.42396e-07
4.67376e-06
7.58446e-07
4.58362e-06
9.73478e-07
4.46561e-06
1.34473e-06
4.36596e-06
1.91596e-06
4.36675e-06
2.3927e-06
4.67864e-06
2.78968e-06
5.8443e-06
2.51085e-06
7.67041e-06
3.11935e-06
8.62483e-06
2.21229e-06
8.7454e-06
1.36764e-06
8.69393e-06
9.09168e-07
8.62174e-06
5.9367e-07
8.56465e-06
4.04586e-07
2.15835e-07
5.66841e-06
9.72451e-08
5.56729e-06
1.08316e-07
5.40629e-06
1.40428e-07
5.21525e-06
1.73647e-07
5.00496e-06
2.09189e-07
4.78809e-06
2.50865e-07
4.57361e-06
2.82747e-07
4.37543e-06
2.983e-07
4.2139e-06
3.03498e-07
4.10476e-06
3.00961e-07
4.05475e-06
2.98944e-07
4.06413e-06
2.95482e-07
4.11471e-06
3.01485e-07
4.18904e-06
3.18521e-07
4.27823e-06
3.38796e-07
4.374e-06
3.60741e-07
4.47191e-06
3.84045e-07
4.56644e-06
4.08242e-07
4.65486e-06
4.28518e-07
4.73996e-06
4.4221e-07
4.82241e-06
4.48958e-07
4.90151e-06
4.51938e-07
4.97777e-06
4.50195e-07
5.05157e-06
4.41902e-07
5.12184e-06
4.33954e-07
5.18779e-06
4.29937e-07
5.2494e-06
4.28193e-07
5.30492e-06
4.29147e-07
5.35403e-06
4.3288e-07
5.39847e-06
4.38127e-07
5.43826e-06
4.48225e-07
5.47131e-06
4.62783e-07
5.49554e-06
4.8246e-07
5.50786e-06
5.19841e-07
5.50551e-06
5.78812e-07
5.48454e-06
6.7671e-07
5.43439e-06
8.29707e-07
5.35175e-06
1.09507e-06
5.24901e-06
1.52653e-06
5.19374e-06
2.15403e-06
5.29167e-06
2.72941e-06
5.86974e-06
3.15627e-06
7.5454e-06
3.12112e-06
9.74728e-06
3.52779e-06
1.0755e-05
2.39431e-06
1.08774e-05
1.56001e-06
1.08236e-05
1.03848e-06
1.07449e-05
6.8996e-07
1.0682e-05
4.71566e-07
2.528e-07
7.06699e-06
8.82786e-08
7.01103e-06
1.65893e-07
6.91316e-06
2.39605e-07
6.78274e-06
3.04935e-07
6.62612e-06
3.66028e-07
6.45789e-06
4.18627e-07
6.27726e-06
4.6188e-07
6.07842e-06
4.94415e-07
5.86884e-06
5.09155e-07
5.65509e-06
5.09432e-07
5.45155e-06
4.96191e-07
5.27561e-06
4.63832e-07
5.13929e-06
4.29127e-07
5.04984e-06
3.98565e-07
5.00991e-06
3.69043e-07
5.0107e-06
3.49889e-07
5.04141e-06
3.43575e-07
5.09506e-06
3.45386e-07
5.1651e-06
3.5023e-07
5.2457e-06
3.54639e-07
5.33356e-06
3.56044e-07
5.42759e-06
3.55219e-07
5.52447e-06
3.52812e-07
5.61999e-06
3.47875e-07
5.71264e-06
3.44495e-07
5.80245e-06
3.44952e-07
5.8896e-06
3.47098e-07
5.97413e-06
3.51923e-07
6.05475e-06
3.60616e-07
6.13082e-06
3.70854e-07
6.20118e-06
3.87356e-07
6.26321e-06
4.1084e-07
6.31411e-06
4.42238e-07
6.3505e-06
4.95966e-07
6.36737e-06
5.77556e-07
6.36064e-06
7.05795e-07
6.32167e-06
9.04394e-07
6.25246e-06
1.22706e-06
6.17173e-06
1.73492e-06
6.19052e-06
2.42676e-06
6.45176e-06
3.12318e-06
7.48972e-06
3.54856e-06
9.87066e-06
3.92858e-06
1.24404e-05
4.15555e-06
1.34303e-05
2.54228e-06
1.35408e-05
1.75396e-06
1.34838e-05
1.17061e-06
1.34013e-05
7.90479e-07
1.33344e-05
5.42778e-07
2.92336e-07
8.8162e-06
8.2491e-08
8.79046e-06
1.93723e-07
8.73694e-06
2.94851e-07
8.65794e-06
3.85138e-07
8.55617e-06
4.68235e-07
8.43322e-06
5.40925e-07
8.29197e-06
6.00933e-07
8.13834e-06
6.44383e-07
7.96675e-06
6.7466e-07
7.77479e-06
6.93259e-07
7.56807e-06
6.92096e-07
7.34098e-06
6.75931e-07
7.10128e-06
6.49726e-07
6.86694e-06
6.09504e-07
6.64936e-06
5.59526e-07
6.46043e-06
5.09181e-07
6.31198e-06
4.61994e-07
6.21341e-06
4.1515e-07
6.16603e-06
3.73185e-07
6.16188e-06
3.38687e-07
6.19372e-06
3.10308e-07
6.25613e-06
2.85203e-07
6.3406e-06
2.65832e-07
6.43818e-06
2.51846e-07
6.54354e-06
2.43765e-07
6.65383e-06
2.41772e-07
6.76499e-06
2.44784e-07
6.87521e-06
2.51752e-07
6.98239e-06
2.6451e-07
7.08477e-06
2.79813e-07
7.17979e-06
3.04089e-07
7.26438e-06
3.38213e-07
7.33522e-06
3.84216e-07
7.38782e-06
4.59189e-07
7.41907e-06
5.68929e-07
7.42406e-06
7.38393e-07
7.38942e-06
9.96373e-07
7.32e-06
1.3973e-06
7.26897e-06
1.98132e-06
7.42777e-06
2.75864e-06
8.01907e-06
3.5724e-06
9.85839e-06
3.99198e-06
1.31984e-05
4.67866e-06
1.59396e-05
4.47931e-06
1.67727e-05
2.72163e-06
1.6864e-05
1.93851e-06
1.68058e-05
1.29908e-06
1.67243e-05
8.89365e-07
1.66568e-05
6.14659e-07
3.32479e-07
1.10125e-05
7.7005e-08
1.1007e-05
2.01923e-07
1.09857e-05
3.18368e-07
1.09473e-05
4.25207e-07
1.0892e-05
5.2432e-07
1.0818e-05
6.14312e-07
1.07236e-05
6.92855e-07
1.06066e-05
7.56222e-07
1.04702e-05
8.02191e-07
1.03246e-05
8.28433e-07
1.01628e-05
8.38009e-07
9.97429e-06
8.4134e-07
9.7624e-06
8.29614e-07
9.52869e-06
8.02685e-07
9.26898e-06
7.67109e-07
8.99404e-06
7.21757e-07
8.72486e-06
6.6257e-07
8.47547e-06
5.90968e-07
8.2586e-06
5.16108e-07
8.08971e-06
4.3987e-07
7.97918e-06
3.6662e-07
7.92628e-06
2.98281e-07
7.92079e-06
2.43699e-07
7.95097e-06
2.03053e-07
8.00587e-06
1.76801e-07
8.07833e-06
1.61668e-07
8.1615e-06
1.57405e-07
8.25064e-06
1.6082e-07
8.34239e-06
1.72708e-07
8.43378e-06
1.89264e-07
8.51983e-06
2.20054e-07
8.59635e-06
2.65145e-07
8.65918e-06
3.28256e-07
8.70331e-06
4.29455e-07
8.72809e-06
5.74374e-07
8.72766e-06
7.99777e-07
8.68417e-06
1.13245e-06
8.62083e-06
1.63031e-06
8.675e-06
2.29002e-06
9.11883e-06
3.17723e-06
1.03952e-05
4.00339e-06
1.35109e-05
4.70408e-06
1.76298e-05
5.19186e-06
2.02278e-05
4.44597e-06
2.09077e-05
2.86318e-06
2.1003e-05
2.07377e-06
2.09504e-05
1.41258e-06
2.08793e-05
9.76194e-07
2.08166e-05
6.81653e-07
3.70303e-07
1.37687e-05
6.98774e-08
1.37784e-05
1.95624e-07
1.37823e-05
3.17463e-07
1.37766e-05
4.33214e-07
1.37595e-05
5.42805e-07
1.37289e-05
6.44743e-07
1.36824e-05
7.37034e-07
1.36187e-05
8.16038e-07
1.35342e-05
8.78991e-07
1.34257e-05
9.23502e-07
1.32918e-05
9.50733e-07
1.31414e-05
9.59986e-07
1.29794e-05
9.51345e-07
1.27905e-05
9.35332e-07
1.25757e-05
9.06192e-07
1.23447e-05
8.63678e-07
1.20938e-05
8.04967e-07
1.18225e-05
7.32184e-07
1.15426e-05
6.50699e-07
1.12704e-05
5.55302e-07
1.10265e-05
4.56724e-07
1.08279e-05
3.57066e-07
1.06763e-05
2.72567e-07
1.05669e-05
2.06538e-07
1.04932e-05
1.57822e-07
1.04494e-05
1.25617e-07
1.04282e-05
1.09665e-07
1.04261e-05
1.04424e-07
1.04365e-05
1.1081e-07
1.0454e-05
1.28213e-07
1.04717e-05
1.65675e-07
1.04851e-05
2.24994e-07
1.04902e-05
3.10325e-07
1.04836e-05
4.45212e-07
1.04665e-05
6.38163e-07
1.04353e-05
9.37818e-07
1.03807e-05
1.35869e-06
1.03915e-05
1.96101e-06
1.07354e-05
2.7426e-06
1.18178e-05
3.6999e-06
1.44971e-05
4.51651e-06
1.91069e-05
5.41151e-06
2.34547e-05
5.45398e-06
2.55192e-05
4.25956e-06
2.60524e-05
2.93313e-06
2.6156e-05
2.14578e-06
2.61242e-05
1.49284e-06
2.60745e-05
1.03933e-06
2.60246e-05
7.35421e-07
4.01425e-07
1.72267e-05
6.04215e-08
1.7249e-05
1.77671e-07
1.72738e-05
2.96637e-07
1.72962e-05
4.14142e-07
1.7313e-05
5.28276e-07
1.73229e-05
6.36777e-07
1.7323e-05
7.37107e-07
1.731e-05
8.26355e-07
1.72804e-05
9.01978e-07
1.72292e-05
9.62068e-07
1.71539e-05
1.00495e-06
1.70536e-05
1.02734e-06
1.69257e-05
1.02971e-06
1.67764e-05
1.01288e-06
1.66331e-05
9.76208e-07
1.64711e-05
9.22268e-07
1.62744e-05
8.62497e-07
1.60446e-05
7.85044e-07
1.57839e-05
6.99595e-07
1.5498e-05
5.9848e-07
1.519e-05
4.97212e-07
1.48843e-05
3.91758e-07
1.45963e-05
3.00002e-07
1.43326e-05
2.26829e-07
1.4096e-05
1.6998e-07
1.38899e-05
1.30314e-07
1.37128e-05
1.05806e-07
1.35627e-05
9.73196e-08
1.34338e-05
1.02642e-07
1.33218e-05
1.26937e-07
1.3221e-05
1.76354e-07
1.31294e-05
2.56747e-07
1.3045e-05
3.71863e-07
1.29684e-05
5.56556e-07
1.29102e-05
8.14608e-07
1.28631e-05
1.20833e-06
1.2893e-05
1.7224e-06
1.32579e-05
2.43765e-06
1.4347e-05
3.32833e-06
1.69209e-05
4.24134e-06
2.15169e-05
5.20694e-06
2.6721e-05
5.33237e-06
3.04008e-05
4.89125e-06
3.19222e-05
3.93728e-06
3.24083e-05
2.84319e-06
3.25573e-05
2.11714e-06
3.25748e-05
1.51062e-06
3.25644e-05
1.06033e-06
3.25401e-05
7.63102e-07
4.19012e-07
2.15659e-05
4.82877e-08
2.15997e-05
1.49798e-07
2.16431e-05
2.58899e-07
2.16912e-05
3.71428e-07
2.17402e-05
4.84131e-07
2.17871e-05
5.93831e-07
2.18291e-05
6.97339e-07
2.18638e-05
7.91593e-07
2.18886e-05
8.73349e-07
2.19012e-05
9.40022e-07
2.18989e-05
9.8967e-07
2.18766e-05
1.02024e-06
2.18435e-05
1.02926e-06
2.17894e-05
1.01313e-06
2.17069e-05
9.764e-07
2.15902e-05
9.19413e-07
2.14392e-05
8.46723e-07
2.12662e-05
7.59731e-07
2.10465e-05
6.65666e-07
2.07819e-05
5.6876e-07
2.04582e-05
4.74926e-07
2.00902e-05
3.83401e-07
1.97048e-05
3.05807e-07
1.93154e-05
2.46756e-07
1.89329e-05
2.01175e-07
1.85654e-05
1.71794e-07
1.82196e-05
1.55029e-07
1.78972e-05
1.57239e-07
1.76007e-05
1.73278e-07
1.73502e-05
2.19864e-07
1.71392e-05
2.86246e-07
1.69562e-05
4.07413e-07
1.68173e-05
5.66777e-07
1.67463e-05
8.20401e-07
1.6741e-05
1.16485e-06
1.6891e-05
1.64641e-06
1.75198e-05
2.23358e-06
1.89477e-05
2.99743e-06
2.17665e-05
3.81817e-06
2.65109e-05
4.43918e-06
3.19628e-05
5.05638e-06
3.63142e-05
4.85497e-06
3.87161e-05
4.25346e-06
3.98744e-05
3.45387e-06
4.03317e-05
2.61625e-06
4.05478e-05
1.97489e-06
4.06347e-05
1.44722e-06
4.06787e-05
1.02431e-06
4.06932e-05
7.51446e-07
4.1515e-07
2.70117e-05
3.3964e-08
2.70548e-05
1.1424e-07
2.71136e-05
2.07663e-07
2.71837e-05
3.08687e-07
2.72618e-05
4.13103e-07
2.73451e-05
5.17021e-07
2.74313e-05
6.16604e-07
2.75184e-05
7.08048e-07
2.7605e-05
7.87596e-07
2.76888e-05
8.52427e-07
2.77768e-05
8.99532e-07
2.78616e-05
9.25417e-07
2.79372e-05
9.3152e-07
2.7995e-05
9.15052e-07
2.8024e-05
8.79869e-07
2.80106e-05
8.26959e-07
2.79461e-05
7.5446e-07
2.78304e-05
6.7679e-07
2.76334e-05
5.93077e-07
2.73737e-05
5.17391e-07
2.70291e-05
4.39886e-07
2.66068e-05
3.79304e-07
2.61466e-05
3.28116e-07
2.56687e-05
2.96733e-07
2.51912e-05
2.74342e-07
2.47301e-05
2.67484e-07
2.42969e-05
2.71565e-07
2.38999e-05
2.96102e-07
2.35486e-05
3.35273e-07
2.32489e-05
4.14804e-07
2.30222e-05
5.13082e-07
2.29299e-05
6.86179e-07
2.29723e-05
9.10302e-07
2.31612e-05
1.21151e-06
2.37032e-05
1.61297e-06
2.48328e-05
2.13279e-06
2.68451e-05
2.64692e-06
3.00185e-05
3.25994e-06
3.4536e-05
3.7751e-06
3.9823e-05
4.22633e-06
4.41686e-05
4.32006e-06
4.70334e-05
3.91303e-06
4.86996e-05
3.43428e-06
4.96572e-05
2.82445e-06
5.01791e-05
2.21176e-06
5.04982e-05
1.69664e-06
5.06855e-05
1.27472e-06
5.08052e-05
9.1038e-07
5.08773e-05
6.81697e-07
3.79389e-07
3.3847e-05
1.93867e-08
3.3897e-05
7.39122e-08
3.39684e-05
1.46041e-07
3.40594e-05
2.27568e-07
3.41682e-05
3.1416e-07
3.42928e-05
4.02073e-07
3.44313e-05
4.87406e-07
3.4583e-05
5.64716e-07
3.47517e-05
6.30717e-07
3.49319e-05
6.82842e-07
3.51204e-05
7.18857e-07
3.53134e-05
7.35224e-07
3.55057e-05
7.33238e-07
3.56881e-05
7.12312e-07
3.58515e-05
6.73893e-07
3.59943e-05
6.25527e-07
3.60776e-05
5.69142e-07
3.60688e-05
5.25992e-07
3.5941e-05
4.928e-07
3.5693e-05
4.68743e-07
3.5334e-05
4.41015e-07
3.48932e-05
4.16901e-07
3.44334e-05
3.98005e-07
3.39696e-05
3.90264e-07
3.35215e-05
3.96373e-07
3.31145e-05
4.1336e-07
3.27678e-05
4.41575e-07
3.25021e-05
4.89679e-07
3.23362e-05
5.55684e-07
3.2312e-05
6.5289e-07
3.24593e-05
7.81221e-07
3.27933e-05
9.44464e-07
3.35108e-05
1.18298e-06
3.47502e-05
1.44103e-06
3.65569e-05
1.78816e-06
3.90991e-05
2.16971e-06
4.27242e-05
2.59577e-06
4.70025e-05
2.8738e-06
5.12531e-05
3.05321e-06
5.4903e-05
3.15851e-06
5.77133e-05
3.05021e-06
5.96213e-05
2.77448e-06
6.09506e-05
2.44175e-06
6.1873e-05
2.03753e-06
6.24945e-05
1.64317e-06
6.29316e-05
1.28078e-06
6.32322e-05
9.83283e-07
6.3437e-05
7.09821e-07
6.35793e-05
5.41363e-07
2.99205e-07
4.24301e-05
6.22928e-09
4.24837e-05
3.25499e-08
4.25694e-05
7.28274e-08
4.26885e-05
1.21855e-07
4.28408e-05
1.76029e-07
4.30239e-05
2.33947e-07
4.32331e-05
2.94098e-07
4.34689e-05
3.4571e-07
4.37326e-05
3.84722e-07
4.40209e-05
4.1295e-07
4.4329e-05
4.29215e-07
4.46506e-05
4.30847e-07
4.49804e-05
4.1748e-07
4.53175e-05
3.91486e-07
4.56416e-05
3.54382e-07
4.59341e-05
3.17668e-07
4.61677e-05
2.90856e-07
4.63085e-05
3.0105e-07
4.63229e-05
3.4716e-07
4.62211e-05
3.95184e-07
4.60302e-05
4.24802e-07
4.57882e-05
4.36744e-07
4.55316e-05
4.45119e-07
4.52962e-05
4.59937e-07
4.51129e-05
4.86512e-07
4.50185e-05
5.18228e-07
4.50468e-05
5.59292e-07
4.52477e-05
6.04718e-07
4.56598e-05
6.6576e-07
4.6268e-05
7.28376e-07
4.72329e-05
8.1195e-07
4.86704e-05
9.00004e-07
5.05823e-05
1.01227e-06
5.30518e-05
1.12427e-06
5.60057e-05
1.25558e-06
5.92983e-05
1.3979e-06
6.26757e-05
1.58903e-06
6.58883e-05
1.62616e-06
6.87124e-05
1.64341e-06
7.11198e-05
1.63045e-06
7.3066e-05
1.58161e-06
7.46365e-05
1.43691e-06
7.58957e-05
1.2892e-06
7.68924e-05
1.08928e-06
7.76604e-05
8.98201e-07
7.82411e-05
7.11726e-07
7.86751e-05
5.55487e-07
7.89824e-05
4.05884e-07
7.92104e-05
3.15013e-07
1.70713e-07
5.3207e-05
5.32549e-05
5.33436e-05
5.34817e-05
5.36749e-05
5.39269e-05
5.42403e-05
5.46067e-05
5.50143e-05
5.54534e-05
5.59139e-05
5.63789e-05
5.68335e-05
5.72642e-05
5.76592e-05
5.80157e-05
5.8341e-05
5.86704e-05
5.90406e-05
5.94586e-05
5.99164e-05
6.04094e-05
6.09499e-05
6.15643e-05
6.22807e-05
6.31218e-05
6.41124e-05
6.52726e-05
6.66172e-05
6.81394e-05
6.98693e-05
7.17773e-05
7.38352e-05
7.59831e-05
7.81777e-05
8.03757e-05
8.25939e-05
8.46726e-05
8.66151e-05
8.84353e-05
9.01384e-05
9.16363e-05
9.29572e-05
9.40675e-05
9.49797e-05
9.57001e-05
9.62609e-05
9.66698e-05
9.69864e-05
)
;

boundaryField
{
    AXIS
    {
        type            empty;
        value           nonuniform 0();
    }
    OUTLET
    {
        type            calculated;
        value           nonuniform List<scalar> 
25
(
1.97046e-07
5.91764e-07
9.87053e-07