/*--------------------------------*- C++ -*----------------------------------*\
| =========                 |                                                 |
| \\      /  F ield         | OpenFOAM: The Open Source CFD Toolbox           |
|  \\    /   O peration     | Version:  2.4.x                                 |
|   \\  /    A nd           | Web:      www.OpenFOAM.org                      |
|    \\/     M anipulation  |                                                 |
\*---------------------------------------------------------------------------*/
FoamFile
{
    version     2.0;
    format      ascii;
    class       volScalarField;
    location    "0.07";
    object      rho;
}
// * * * * * * * * * * * * * * * * * * * * * * * * * * * * * * * * * * * * * //

dimensions      [1 -3 0 0 0 0 0];

internalField   nonuniform List<scalar> 
1250
(
1.00247
0.892603
0.800594
0.72905
0.670861
0.623121
0.583117
0.54903
0.518229
0.485958
0.457308
0.432398
0.409567
0.388692
0.369893
0.352453
0.337045
0.323696
0.31138
0.29988
0.289133
0.27904
0.269604
0.261683
0.253446
0.24543
0.237982
0.231171
0.224828
0.219041
0.213674
0.208696
0.204267
0.200263
0.196635
0.193333
0.18992
0.187588
0.185623
0.182921
0.187931
0.2139
0.312943
0.540785
0.899643
1.11362
1.16688
1.17771
1.17979
1.18017
0.994995
0.875856
0.78392
0.713663
0.657468
0.611943
0.574094
0.541901
0.508364
0.477137
0.449586
0.425595
0.403485
0.383448
0.365198
0.348258
0.333379
0.320448
0.308431
0.297226
0.28671
0.276841
0.267623
0.259882
0.252245
0.24432
0.237003
0.230273
0.224037
0.218322
0.213024
0.208114
0.203704
0.199757
0.196186
0.19293
0.189571
0.187274
0.185334
0.182784
0.188072
0.214399
0.313798
0.542266
0.900942
1.11397
1.16695
1.17772
1.17979
1.18017
0.972401
0.832027
0.742279
0.676888
0.626972
0.588169
0.553257
0.518193
0.486519
0.458029
0.432879
0.410846
0.390618
0.372165
0.355036
0.339271
0.325542
0.313432
0.302114
0.291495
0.281499
0.272137
0.263375
0.25605
0.249354
0.241913
0.234852
0.228302
0.222287
0.216734
0.211598
0.206843
0.202506
0.198652
0.195208
0.19205
0.188792
0.186578
0.184723
0.182533
0.188391
0.21561
0.315978
0.546167
0.904443
1.11492
1.16712
1.17776
1.1798
1.18017
0.909771
0.747299
0.669468
0.620773
0.581766
0.54422
0.511264
0.481967
0.455067
0.430511
0.409022
0.390027
0.372312
0.355844
0.340599
0.326522
0.314339
0.303366
0.292987
0.283207
0.274028
0.265395
0.257348
0.250587
0.244403
0.238455
0.231695
0.22548
0.219723
0.214416
0.209524
0.205
0.200847
0.197043
0.193778
0.190749
0.18768
0.185593
0.183849
0.182219
0.188939
0.217604
0.319596
0.552746
0.910317
1.11648
1.16741
1.17781
1.17981
1.18018
0.725248
0.598489
0.570118
0.537725
0.510098
0.485494
0.461853
0.43932
0.417957
0.397982
0.380885
0.365117
0.35036
0.336573
0.32351
0.311127
0.300713
0.290976
0.281797
0.2731
0.264926
0.25723
0.249987
0.243886
0.238309
0.233054
0.227729
0.221872
0.216469
0.211502
0.206903
0.202639
0.198754
0.195097
0.191945
0.189103
0.186263
0.184356
0.182769
0.18197
0.189701
0.220404
0.324595
0.562025
0.918429
1.11861
1.16781
1.17788
1.17982
1.18018
0.336993
0.428856
0.448433
0.444476
0.433246
0.419831
0.405011
0.389529
0.374871
0.361343
0.349849
0.338483
0.327474
0.3159
0.304825
0.294398
0.285686
0.277385
0.269474
0.261949
0.254878
0.24818
0.241839
0.236395
0.231493
0.226798
0.222343
0.217673
0.212687
0.208085
0.203853
0.199951
0.196355
0.192974
0.189957
0.18721
0.18465
0.182933
0.181679
0.181854
0.19073
0.224094
0.33105
0.574005
0.928598
1.12123
1.16829
1.17796
1.17983
1.18018
0.218186
0.318431
0.360444
0.372449
0.372692
0.365957
0.35692
0.34685
0.336404
0.327059
0.318669
0.310256
0.302043
0.294042
0.286157
0.277704
0.270461
0.263516
0.256866
0.250517
0.24455
0.238827
0.233326
0.228536
0.224298
0.220224
0.21632
0.212582
0.208529
0.204388
0.200547
0.197002
0.193737
0.190688
0.187967
0.185333
0.182965
0.181539
0.180899
0.181992
0.192148
0.228789
0.338874
0.588921
0.940567
1.12424
1.16885
1.17806
1.17985
1.18018
0.188039
0.279623
0.320442
0.331158
0.332846
0.327515
0.320358
0.312615
0.304681
0.298104
0.291912
0.285692
0.279508
0.273506
0.267667
0.262265
0.256295
0.25054
0.244993
0.239669
0.234569
0.229672
0.22497
0.220743
0.217113
0.213634
0.210285
0.207094
0.204016
0.20053
0.197132
0.193994
0.191085
0.188374
0.185961
0.183639
0.181656
0.180521
0.180255
0.182499
0.194141
0.234421
0.348225
0.606428
0.953971
1.12753
1.16946
1.17816
1.17987
1.18018
0.193297
0.287216
0.320214
0.319052
0.311951
0.304911
0.296418
0.288671
0.281554
0.276069
0.270879
0.26584
0.260924
0.256187
0.251569
0.247447
0.243349
0.238552
0.233903
0.229431
0.22516
0.221051
0.21708
0.213424
0.210357
0.207409
0.204586
0.201879
0.199275
0.19678
0.193803
0.191059
0.188533
0.1862
0.184105
0.1821
0.180511
0.179693
0.179875
0.183376
0.196769
0.240909
0.358888
0.626261
0.968341
1.13097
1.17009
1.17827
1.17988
1.18019
0.26488
0.368594
0.374492
0.338657
0.314675
0.29788
0.285541
0.275328
0.266838
0.25959
0.253483
0.248148
0.243338
0.239047
0.235186
0.232745
0.230292
0.226752
0.223147
0.219615
0.216234
0.212983
0.209873
0.206928
0.204335
0.201863
0.199479
0.197199
0.195031
0.192946
0.190775
0.188437
0.186261
0.184294
0.182526
0.180866
0.179663
0.179187
0.179903
0.184743
0.200019
0.24844
0.370778
0.648115
0.983143
1.13442
1.17073
1.17838
1.1799
1.18019
0.762937
0.594365
0.500705
0.407405
0.34712
0.312249
0.289761
0.273753
0.263093
0.254241
0.246032
0.239098
0.233388
0.228408
0.224224
0.221947
0.219831
0.216984
0.214174
0.211438
0.2088
0.206234
0.203762
0.201388
0.199199
0.197114
0.195122
0.193241
0.191439
0.189723
0.188095
0.186202
0.184403
0.182792
0.181338
0.18006
0.179282
0.179176
0.180497
0.186735
0.204222
0.257203
0.384744
0.672706
0.998332
1.13788
1.17137
1.17849
1.17992
1.18019
1.02435
0.825114
0.690282
0.550324
0.437009
0.363596
0.318072
0.290831
0.271819
0.25809
0.24825
0.240125
0.233585
0.228097
0.223658
0.219324
0.215184
0.211678
0.20873
0.206054
0.203567
0.201233
0.199053
0.196994
0.195099
0.193338
0.191672
0.190107
0.188654
0.187278
0.185983
0.18459
0.183154
0.181912
0.180793
0.179932
0.179558
0.17989
0.182041
0.189718
0.209888
0.268004
0.40261
0.701459
1.01482
1.14157
1.17205
1.17861
1.17994
1.18019
1.11325
0.97697
0.862659
0.735299
0.60173
0.485645
0.398997
0.341891
0.305259
0.280963
0.263732
0.250358
0.24028
0.232364
0.225915
0.220481
0.215822
0.211761
0.208151
0.204889
0.201938
0.199292
0.196847
0.194643
0.192841
0.19126
0.189814
0.188491
0.18729
0.186186
0.185184
0.184084
0.18301
0.182096
0.181354
0.180913
0.180952
0.181865
0.185058
0.194287
0.218159
0.282069
0.427216
0.736751
1.0335
1.14572
1.17283
1.17874
1.17996
1.1802
1.14454
1.0608
0.974617
0.883667
0.778675
0.667268
0.558881
0.465232
0.393988
0.342094
0.306509
0.281305
0.263048
0.24949
0.238731
0.230087
0.223098
0.217193
0.212188
0.207873
0.204162
0.200931
0.198085
0.195643
0.193743
0.192143
0.190741
0.18951
0.188447
0.1875
0.186541
0.185609
0.184825
0.184214
0.183787
0.183742
0.184225
0.185821
0.190346
0.201358
0.230499
0.301101
0.461964
0.782739
1.05458
1.15042
1.17374
1.17891
1.17999
1.1802
1.15799
1.10418
1.04496
0.978158
0.905829
0.825178
0.738263
0.647355
0.558334
0.478422
0.412444
0.362265
0.325428
0.297334
0.276171
0.259914
0.247131
0.236813
0.228131
0.220875
0.214988
0.210099
0.206052
0.202827
0.200351
0.198266
0.196521
0.195048
0.193631
0.192428
0.191436
0.190606
0.189938
0.189473
0.189304
0.189602
0.190521
0.192961
0.198982
0.212737
0.247812
0.327946
0.512923
0.838506
1.07763
1.15557
1.17476
1.1791
1.18002
1.18021
1.16505
1.12854
1.08728
1.04098
0.988576
0.929726
0.869566
0.801732
0.730869
0.657272
0.584959
0.51664
0.454955
0.402765
0.360653
0.32754
0.301721
0.281297
0.265081
0.252176
0.241761
0.233416
0.226823
0.22148
0.217086
0.213414
0.210334
0.207818
0.205714
0.204009
0.2026
0.201433
0.200493
0.199828
0.199633
0.200032
0.20148
0.20491
0.21277
0.230353
0.273641
0.368215
0.587145
0.903305
1.10127
1.16092
1.17586
1.17931
1.18006
1.18021
1.16937
1.14358
1.11416
1.08111
1.0441
1.00266
0.956273
0.906696
0.856131
0.800674
0.744146
0.686799
0.627388
0.568259
0.511566
0.459362
0.413402
0.37427
0.342287
0.316842
0.296588
0.280578
0.267982
0.257969
0.249853
0.243292
0.237886
0.233335
0.229504
0.226282
0.22356
0.221227
0.219317
0.217848
0.21707
0.217505
0.219432
0.223811
0.233584
0.257394
0.313198
0.432341
0.689881
0.979716
1.12366
1.1661
1.17696
1.17953
1.1801
1.18022
1.1723
1.15367
1.13234
1.10831
1.08144
1.05154
1.01835
0.981628
0.941135
0.899646
0.859205
0.81533
0.768148
0.719583
0.669657
0.618486
0.567976
0.519625
0.474299
0.433668
0.398872
0.370075
0.346552
0.327405
0.311609
0.298434
0.287414
0.278084
0.270124
0.263415
0.257685
0.252803
0.248762
0.245616
0.243794
0.243964
0.246486
0.25223
0.266075
0.301477
0.376806
0.5386
0.81811
1.04959
1.14315
1.17072
1.17798
1.17974
1.18014
1.18023
1.17443
1.16087
1.14532
1.1277
1.10793
1.08589
1.06145
1.03458
1.00594
0.974766
0.940856
0.904057
0.868537
0.830842
0.790113
0.748011
0.705249
0.660879
0.615607
0.570967
0.528392
0.489712
0.455782
0.426325
0.400948
0.379227
0.360487
0.344327
0.33059
0.318754
0.308545
0.299949
0.29285
0.287556
0.284475
0.284672
0.288342
0.297638
0.321066
0.375984
0.48588
0.70033
0.952601
1.10413
1.15825
1.17444
1.17883
1.17992
1.18018
1.18024
1.17605
1.16627
1.15498
1.1421
1.12753
1.1113
1.09353
1.074
1.05264
1.0293
1.00384
0.976042
0.945654
0.912392
0.879435
0.847306
0.811909
0.773443
0.732629
0.690759
0.648226
0.606693
0.567821
0.532307
0.500409
0.471973
0.446959
0.425
0.405956
0.389486
0.375453
0.363782
0.354604
0.348246
0.345679
0.347896
0.355213
0.374451
0.419156
0.507269
0.66906
0.886064
1.06254
1.14115
1.16867
1.17711
1.17946
1.18007
1.18021
1.18024
1.17734
1.1705
1.16254
1.15338
1.14296
1.13123
1.11815
1.10367
1.08773
1.07023
1.05104
1.02997
1.00713
0.98343
0.957312
0.928357
0.896202
0.863295
0.828443
0.79154
0.752831
0.713086
0.67418
0.637414
0.603317
0.572134
0.543966
0.51886
0.496735
0.477725
0.462501
0.45052
0.442196
0.438307
0.440399
0.44849
0.469237
0.513033
0.590944
0.71897
0.886426
1.04385
1.12801
1.16273
1.17495
1.17878
1.17987
1.18016
1.18023
1.18025
1.17839
1.17391
1.16855
1.16224
1.15492
1.14656
1.13712
1.12658
1.1149
1.10201
1.08781
1.07314
1.05713
1.03952
1.01992
0.997871
0.972855
0.945233
0.914818
0.881443
0.847834
0.81217
0.776311
0.741795
0.709374
0.679569
0.652775
0.629183
0.608937
0.592194
0.579312
0.571612
0.570018
0.574025
0.586265
0.613297
0.659124
0.729435
0.829844
0.951601
1.06139
1.12851
1.16066
1.17363
1.17821
1.17967
1.1801
1.18021
1.18024
1.18025
1.17924
1.17659
1.17323
1.16911
1.1642
1.15849
1.15196
1.1446
1.1366
1.12796
1.11855
1.1083
1.09707
1.08466
1.07073
1.05525
1.03815
1.01832
0.995337
0.969196
0.9404
0.909694
0.878891
0.850137
0.823141
0.798678
0.777304
0.759478
0.745618
0.736203
0.732098
0.733043
0.740931
0.759761
0.789648
0.832294
0.888611
0.964125
1.0401
1.10213
1.14274
1.16452
1.17436
1.17826
1.17963
1.18007
1.18021
1.18024
1.18025
1.18025
1.17992
1.17872
1.17687
1.17448
1.17158
1.16816
1.16422
1.15977
1.15482
1.14936
1.14339
1.13685
1.12971
1.12224
1.114
1.1046
1.09366
1.0808
1.06568
1.04822
1.02884
1.00813
0.986911
0.966234
0.947038
0.930183
0.916478
0.906677
0.901534
0.900914
0.905065
0.917638
0.937825
0.966149
1.00143
1.04082
1.08053
1.11598
1.14337
1.16154
1.17184
1.17686
1.17901
1.17984
1.18012
1.18022
1.18024
1.18025
1.18025
1.18025
1.18026
1.17998
1.17945
1.17865
1.17756
1.17621
1.17457
1.17266
1.17047
1.16806
1.16552
1.16279
1.1598
1.15657
1.15299
1.14898
1.14434
1.13892
1.13265
1.12557
1.11789
1.10994
1.10209
1.09484
1.08869
1.08409
1.0815
1.08128
1.08369
1.08868
1.09639
1.10659
1.11848
1.13109
1.14339
1.15441
1.16343
1.17015
1.17466
1.17737
1.17904
1.17988
1.18013
1.18021
1.18024
1.18025
1.18025
1.18025
1.18025
1.18025
)
;

boundaryField
{
    AXIS
    {
        type            empty;
    }
    OUTLET
    {
        type            calculated;
        value           nonuniform List<scalar> 
25
(
1.18017
1.18017
1.18017
1.18017
1.18018
1.18018
1.18018
1.18018
1.18019
1.18019
1.18019
1.18019
1.1802
1.1802
1.18021
1.18021
1.18022
1.18023
1.18023
1.18024
1.18024
1.18025
1.18025
1.18025
1.18025
)
;
    }
    COFLOW
    {
        type            calculated;
        value           nonuniform List<scalar> 
15
(
1.18029
1.1803
1.18029
1.18028
1.18028
1.18028
1.18027
1.18027
1.18027
1.18027
1.18027
1.18027
1.18027
1.18027
1.18027
)
;
    }
    PILOT
    {
        type            calculated;
        value           nonuniform List<scalar> 5(0.156773 0.156777 0.15679 0.156795 0.156799);
    }
    FUEL
    {
        type            calculated;
        value           nonuniform List<scalar> 5(1.05081 1.05078 1.05091 1.05128 1.05152);
    }
    WALL
    {
        type            calculated;
        value           nonuniform List<scalar> 
50
(
1.18026
1.17998
1.17945
1.17865
1.17756
1.17621
1.17457
1.17266
1.17047
1.16806
1.16552
1.16279
1.1598
1.15657
1.15299
1.14898
1.14434
1.13892
1.13265
1.12557
1.11789
1.10994
1.10209
1.09484
1.08869
1.08409
1.0815
1.08128
1.08369
1.08868
1.09639
1.10659
1.11848
1.13109
1.14339
1.15441
1.16343
1.17015
1.17466
1.17737
1.17904
1.17988
1.18013
1.18021
1.18024
1.18025
1.18025
1.18025
1.18025
1.18025
)
;
    }
    front
    {
        type            wedge;
    }
    back
    {
        type            wedge;
    }
}


// ************************************************************************* //
