/*--------------------------------*- C++ -*----------------------------------*\
| =========                 |                                                 |
| \\      /  F ield         | OpenFOAM: The Open Source CFD Toolbox           |
|  \\    /   O peration     | Version:  2.4.x                                 |
|   \\  /    A nd           | Web:      www.OpenFOAM.org                      |
|    \\/     M anipulation  |                                                 |
\*---------------------------------------------------------------------------*/
FoamFile
{
    version     2.0;
    format      ascii;
    class       volScalarField;
    location    "0.07";
    object      T;
}
// * * * * * * * * * * * * * * * * * * * * * * * * * * * * * * * * * * * * * //

dimensions      [0 0 0 1 0 0 0];

internalField   nonuniform List<scalar> 
1250
(
308.11
345.55
385.191
423.071
459.978
495.552
530.009
563.459
597.498
637.372
677.486
716.731
756.875
797.697
838.415
880.046
920.401
958.459
996.472
1034.78
1073.35
1112.3
1151.38
1186.49
1224.84
1264.43
1303.63
1341.78
1379.48
1415.92
1451.63
1486.61
1519.4
1550.66
1580.39
1608.64
1639.28
1661.58
1682.91
1718.73
1704.65
1538.22
1077.83
634.839
384.664
311.432
297.341
294.629
294.113
294.019
310.4
352.136
393.38
432.243
469.473
504.826
538.659
571.292
609.297
649.375
689.363
728.443
768.551
808.896
849.497
890.955
930.842
968.509
1006.34
1044.37
1082.78
1121.51
1160.29
1195.11
1231.28
1270.78
1309.64
1347.64
1384.99
1421.23
1456.73
1491.46
1524.29
1555.3
1584.72
1612.74
1643.05
1665.1
1686.3
1720.86
1704.12
1535.04
1075.04
633.142
384.115
311.335
297.324
294.626
294.113
294.019
317.597
370.605
415.475
455.943
492.777
525.974
559.81
598.019
637.215
677.061
716.596
755.25
794.559
834.142
874.537
915.305
954.016
990.967
1028.18
1065.72
1103.67
1141.76
1179.9
1213.9
1246.79
1284.78
1323.01
1360.65
1397.3
1433.07
1468.01
1502.12
1534.84
1565.51
1594.25
1621.75
1651.47
1672.95
1693.6
1725.12
1702.93
1527.38
1067.97
628.714
382.646
311.073
297.279
294.618
294.112
294.019
339.393
412.482
460.964
498.085
532.429
569.703
606.876
644.109
682.425
721.52
759.608
796.811
834.892
873.669
912.883
952.349
989.319
1025.16
1061.53
1098.26
1135.13
1172.17
1208.97
1241.81
1273.52
1305.54
1343.15
1379.82
1415.77
1450.77
1484.8
1517.93
1549.87
1580.67
1608.43
1635.27
1663.78
1684.35
1704.29
1731
1700.55
1514.87
1056.43
621.384
380.205
310.64
297.206
294.605
294.11
294.018
424.997
515.345
543.366
577.326
609.467
640.947
674.135
708.93
745.244
782.646
817.872
853.281
889.318
925.853
963.25
1001.5
1036.15
1070.81
1105.68
1140.91
1176.15
1211.41
1246.62
1278.02
1308.18
1337.99
1369.43
1405.17
1439.99
1473.74
1506.64
1538.71
1569.35
1599.66
1627.01
1652.8
1679.79
1699.02
1717.89
1737.27
1697.03
1497.57
1040.9
611.331
376.884
310.055
297.106
294.588
294.107
294.018
920.361
726.451
696.407
703.378
721.973
745.118
772.292
802.806
834.089
865.317
893.858
923.903
954.941
989.658
1025.3
1061.32
1093.51
1126.1
1159.04
1192.24
1225.29
1258.36
1291.42
1321.31
1349.51
1377.73
1405.71
1435.96
1469.33
1501.71
1533.02
1563.3
1592.51
1621.31
1648.11
1673.64
1698.64
1716.43
1732.61
1743.17
1691.79
1475.21
1021.5
598.823
372.803
309.337
296.984
294.567
294.104
294.017
1464.91
995.717
878.084
848.586
847.055
861.662
882.546
907.325
934.754
960.85
985.669
1012
1039.18
1067.17
1096.3
1129.11
1158.95
1189.16
1219.65
1250.33
1280.69
1311.28
1342.16
1370.35
1396.4
1422.47
1448.48
1474.39
1503.13
1533.44
1562.91
1591.38
1618.79
1645.57
1670.44
1695.54
1719.26
1734.63
1745.36
1747.42
1683.72
1447.56
998.927
583.945
368.111
308.516
296.844
294.543
294.1
294.017
1739.3
1158.02
1005.1
968.027
959.676
972.492
991.812
1014.37
1039.08
1060.67
1082.06
1104.68
1128.34
1152.44
1177.04
1200.96
1228.24
1255.8
1283.68
1311.73
1339.87
1368.15
1396.56
1423.24
1447.1
1470.84
1494.53
1517.96
1541.39
1568.25
1595.37
1621.5
1646.78
1671.37
1694.07
1716.9
1737.4
1750.22
1757.58
1748.76
1671.28
1415.59
973.21
567.396
362.995
307.624
296.69
294.518
294.095
294.016
1711.99
1152.77
1026.08
1021.57
1038.16
1057
1082.99
1108.52
1133.61
1153.83
1174
1194.62
1215.74
1237.05
1258.78
1279.03
1299.86
1325
1350.47
1376.05
1401.52
1427.08
1452.83
1477.49
1498.97
1520.34
1541.52
1562.53
1583.44
1604.16
1628.86
1652.56
1675.3
1697.15
1717.46
1737.82
1754.79
1764.71
1767.88
1746.94
1654.08
1380.33
945.45
549.744
357.665
306.697
296.531
294.491
294.091
294.016
1272.19
917.573
896.005
979.799
1045.09
1096.33
1137.43
1174.37
1207.41
1237.42
1263.96
1288.33
1311.27
1332.61
1352.74
1366.03
1379.89
1400.26
1421.83
1443.77
1465.57
1487.39
1509.05
1530.29
1549.5
1568.4
1587.24
1605.84
1624.12
1642.27
1661.49
1682.38
1702.61
1721.59
1739.24
1756.64
1769.97
1776.67
1774.67
1740.76
1632.41
1341.38
916.307
531.522
352.336
305.772
296.371
294.464
294.087
294.015
452.704
577.663
681.007
828.828
963.203
1061.31
1135.69
1195.22
1238.09
1276.48
1315.12
1349.5
1379.14
1406.23
1429.94
1442.7
1455.02
1472.32
1490.09
1508.05
1525.98
1544.06
1562.09
1579.97
1596.95
1613.6
1630.03
1646.04
1661.86
1677.41
1692.64
1710.19
1727.4
1743.37
1758.29
1772.15
1781.29
1784.4
1776.44
1729.22
1604.21
1298.61
884.246
512.405
347.031
304.851
296.212
294.437
294.082
294.014
338.292
418.651
498.45
621.645
776.889
926.158
1050.71
1140.83
1213.79
1272.36
1317.66
1357.74
1391.84
1421.92
1447.23
1473.29
1499.03
1521.22
1540.36
1558.34
1575.63
1592.45
1608.7
1624.57
1639.71
1654.19
1668.36
1682.08
1695.23
1708.08
1720.56
1733.99
1748.05
1760.64
1772.4
1782.15
1787.14
1785.95
1769.92
1709.68
1566.7
1249.4
846.311
491.722
341.451
303.874
296.04
294.407
294.078
294.014
311.517
354.399
400.559
468.59
570.254
702.867
849.964
985.353
1096.95
1185.2
1256.64
1318.32
1368.76
1410.99
1447.27
1479.33
1507.94
1533.83
1557.69
1579.98
1600.85
1620.18
1638.62
1655.79
1670.3
1683.4
1695.8
1707.46
1718.41
1728.82
1738.58
1749.22
1759.82
1769.16
1777.16
1782.53
1783.25
1776.43
1750.69
1677.97
1513.76
1190.54
799.021
468.507
335.338
302.783
295.844
294.373
294.072
294.013
303.081
326.718
355.208
391.21
443.087
515.68
613.497
733.742
862.156
987.559
1096.56
1189.19
1266.38
1330.33
1385.7
1433.52
1474.51
1510.95
1543.25
1572.22
1598.05
1621.32
1642.49
1661.2
1676.18
1689.14
1700.83
1711.39
1720.81
1729.42
1738.2
1746.87
1754.43
1760.56
1765.18
1766.35
1762.67
1749.54
1712.5
1628.3
1439.77
1119.05
740.514
441.353
328.699
301.559
295.618
294.332
294.065
294.012
299.599
314.03
331.606
353.957
381.832
418.608
467.11
531.547
614.582
714.794
825.905
936.464
1038.35
1131.92
1214.14
1285.72
1348.05
1402.79
1452.34
1496.43
1534.12
1566.88
1595.08
1618.32
1636.65
1652.49
1666.06
1677.8
1689.18
1699.02
1707.33
1714.45
1720.33
1724.55
1726.3
1723.99
1716.43
1696.46
1649.14
1551.24
1346.36
1031.48
668.616
412.365
321.737
300.226
295.364
294.285
294.057
294.01
297.8
307.328
318.856
332.871
350.302
372.197
397.612
430.792
471.945
523.937
587.526
663.592
751.402
846.075
941.731
1033.51
1118.38
1195.95
1265.51
1326.8
1380.67
1426.98
1465.74
1498.69
1526.86
1551.2
1572.24
1589.84
1604.89
1617.3
1627.73
1636.49
1643.6
1648.64
1650.05
1646.79
1635.41
1609.43
1553.59
1442.83
1226.55
922.812
585.704
383.123
314.892
298.854
295.09
294.233
294.047
294.009
296.713
303.332
311.254
320.665
331.904
345.467
362.031
381.592
403.855
431.469
463.787
501.931
548.686
604.752
670.432
744.91
825.623
909.478
991.73
1068.52
1138.63
1200.84
1254.71
1301.04
1341.14
1375.34
1404.83
1430.63
1453.07
1472.46
1489.21
1503.84
1515.97
1525.34
1530.16
1526.85
1513.65
1485.11
1426.07
1300.91
1078.62
789.907
499.849
353.556
308.675
297.537
294.816
294.178
294.037
294.007
295.979
300.711
306.315
312.888
320.579
329.599
340.226
352.818
367.833
384.601
402.489
423.881
449.58
479.508
514.737
556.655
605.299
660.523
722.293
788.375
855.377
920.064
980.607
1036.07
1086.73
1132.91
1174.61
1212.36
1246.5
1276.77
1303.75
1327.6
1347.93
1364.1
1373.43
1372.06
1358.17
1328.23
1261.98
1119.56
902.775
637.424
422.512
330.248
303.459
296.373
294.563
294.126
294.027
294.005
295.448
298.864
302.884
307.569
313.002
319.29
326.57
334.966
344.403
355.302
367.971
382.784
398.263
416.124
437.317
461.604
489.192
521.538
559.27
602.24
649.861
700.158
751.153
801.844
851.323
898.777
944.16
987.118
1026.8
1063.61
1097.52
1127.73
1153.91
1174.14
1186.1
1184.99
1170.16
1134.72
1054.66
905.07
705.051
492.505
363.509
314.084
299.537
295.442
294.352
294.081
294.018
294.003
295.044
297.496
300.375
303.731
307.617
312.068
317.091
322.799
329.288
336.68
345.135
354.866
366.153
379.363
393.415
408.153
425.724
446.62
471.157
499.309
531.574
567.377
605.557
645.219
685.552
726
765.739
804.38
841.179
875.811
907.628
935.874
959.315
976.198
983.087
976.855
957.195
909.308
814.711
676.093
515.175
390.482
326.258
303.984
296.889
294.778
294.196
294.046
294.01
294.002
294.725
296.432
298.443
300.792
303.508
306.625
310.178
314.21
318.773
323.938
329.797
336.481
344.036
352.241
361.747
372.904
386.128
400.672
417.323
436.52
458.645
483.834
511.341
540.377
570.424
600.999
631.578
661.59
690.508
717.44
740.542
759.782
773.729
780.394
776.722
762.98
729.936
668.832
582.172
479.966
390.328
332.04
307.493
298.392
295.316
294.365
294.095
294.023
294.005
294.001
294.465
295.58
296.923
298.521
300.396
302.567
305.054
307.882
311.079
314.687
318.759
323.074
327.918
333.42
339.762
347.19
356.022
366.304
378.329
392.468
407.827
425.501
444.892
465.306
486.275
507.304
527.827
547.327
565.254
581.004
593.739
601.603
603.248
599.1
586.794
561.341
522.9
473.189
416.633
363.891
326.607
307.355
298.919
295.645
294.505
294.144
294.038
294.01
294.002
294
294.255
294.913
295.75
296.782
298.022
299.478
301.161
303.082
305.196
307.512
310.075
312.918
316.091
319.673
323.79
328.492
333.839
340.265
348.03
357.305
368.112
380.383
393.55
406.701
419.878
432.581
444.331
454.634
462.986
468.846
471.461
470.886
465.946
454.551
437.567
415.418
389.388
359.214
333.232
314.649
303.564
297.938
295.461
294.494
294.154
294.045
294.012
294.003
294.001
294
294.086
294.384
294.843
295.438
296.163
297.021
298.017
299.152
300.424
301.837
303.4
305.127
307.04
309.061
311.323
313.945
317.051
320.779
325.282
330.638
336.798
343.637
350.943
358.368
365.551
372.101
377.606
381.648
383.81
384.081
382.351
377.183
369.166
358.464
345.966
333.002
320.879
310.779
303.402
298.695
296.094
294.841
294.308
294.104
294.032
294.009
294.003
294.001
294
294
294.004
294.071
294.202
294.402
294.671
295.007
295.413
295.892
296.438
297.045
297.686
298.378
299.137
299.965
300.884
301.922
303.134
304.559
306.226
308.131
310.225
312.425
314.626
316.687
318.458
319.795
320.558
320.625
319.922
318.475
316.26
313.375
310.081
306.657
303.39
300.524
298.214
296.517
295.39
294.713
294.301
294.094
294.031
294.013
294.004
294.001
294
294
294
294
)
;

boundaryField
{
    AXIS
    {
        type            empty;
    }
    OUTLET
    {
        type            calculated;
        value           nonuniform List<scalar> 
25
(
294.019
294.019
294.019
294.018
294.018
294.017
294.017
294.016
294.016
294.015
294.014
294.014
294.013
294.012
294.01
294.009
294.007
294.005
294.003
294.002
294.001
294
294
294
294
)
;
    }
    COFLOW
    {
        type            calculated;
        value           uniform 294;
    }
    PILOT
    {
        type            calculated;
        value           uniform 2102.68;
    }
    FUEL
    {
        type            calculated;
        value           uniform 294;
    }
    WALL
    {
        type            calculated;
        value           nonuniform List<scalar> 
50
(
294.004
294.071
294.202
294.402
294.671
295.007
295.413
295.892
296.438
297.045
297.686
298.378
299.137
299.965
300.884
301.922
303.134
304.559
306.226
308.131
310.225
312.425
314.626
316.687
318.458
319.795
320.558
320.625
319.922
318.475
316.26
313.375
310.081
306.657
303.39
300.524
298.214
296.517
295.39
294.713
294.301
294.094
294.031
294.013
294.004
294.001
294
294
294
294
)
;
    }
    front
    {
        type            wedge;
    }
    back
    {
        type            wedge;
    }
}


// ************************************************************************* //
