/*--------------------------------*- C++ -*----------------------------------*\
| =========                 |                                                 |
| \\      /  F ield         | OpenFOAM: The Open Source CFD Toolbox           |
|  \\    /   O peration     | Version:  2.4.x                                 |
|   \\  /    A nd           | Web:      www.OpenFOAM.org                      |
|    \\/     M anipulation  |                                                 |
\*---------------------------------------------------------------------------*/
FoamFile
{
    version     2.0;
    format      ascii;
    class       volScalarField;
    location    "0.07";
    object      thermo:alpha;
}
// * * * * * * * * * * * * * * * * * * * * * * * * * * * * * * * * * * * * * //

dimensions      [1 -1 -1 0 0 0 0];

internalField   nonuniform List<scalar> 
1250
(
2.72204e-05
2.99462e-05
3.26826e-05
3.51688e-05
3.74833e-05
3.96234e-05
4.16195e-05
4.34913e-05
4.53352e-05
4.74237e-05
4.94545e-05
5.13799e-05
5.32912e-05
5.51794e-05
5.70117e-05
5.8836e-05
6.05611e-05
6.21521e-05
6.37082e-05
6.52486e-05
6.677e-05
6.82776e-05
6.97633e-05
7.10767e-05
7.24895e-05
7.39248e-05
7.5324e-05
7.66655e-05
7.79723e-05
7.92187e-05
8.04249e-05
8.1592e-05
8.26737e-05
8.36956e-05
8.46578e-05
8.55642e-05
8.65379e-05
8.72401e-05
8.79052e-05
8.90112e-05
8.86528e-05
8.36817e-05
6.765e-05
4.78312e-05
3.28673e-05
2.76057e-05
2.6533e-05
2.63241e-05
2.62843e-05
2.6277e-05
2.73913e-05
3.0411e-05
3.32302e-05
3.57535e-05
3.80629e-05
4.01679e-05
4.21098e-05
4.39212e-05
4.59614e-05
4.80389e-05
5.00437e-05
5.19437e-05
5.38372e-05
5.56887e-05
5.75023e-05
5.93068e-05
6.10013e-05
6.25669e-05
6.41078e-05
6.56299e-05
6.71379e-05
6.86303e-05
7.00986e-05
7.13961e-05
7.27246e-05
7.41529e-05
7.55364e-05
7.68696e-05
7.81617e-05
7.93989e-05
8.05954e-05
8.17521e-05
8.28336e-05
8.38455e-05
8.47966e-05
8.56942e-05
8.66565e-05
8.73502e-05
8.80103e-05
8.90774e-05
8.86395e-05
8.35819e-05
6.75414e-05
4.77418e-05
3.28297e-05
2.75983e-05
2.65317e-05
2.63239e-05
2.62843e-05
2.6277e-05
2.79249e-05
3.16924e-05
3.46796e-05
3.72352e-05
3.94598e-05
4.13901e-05
4.32913e-05
4.53646e-05
4.74176e-05
4.94351e-05
5.13745e-05
5.32162e-05
5.50376e-05
5.68231e-05
5.85988e-05
6.03467e-05
6.1969e-05
6.34857e-05
6.49861e-05
6.64724e-05
6.79468e-05
6.94011e-05
7.08319e-05
7.20886e-05
7.32875e-05
7.46532e-05
7.60071e-05
7.73212e-05
7.85832e-05
7.97992e-05
8.09722e-05
8.21042e-05
8.31776e-05
8.4175e-05
8.51011e-05
8.59797e-05
8.69207e-05
8.75947e-05
8.82363e-05
8.92099e-05
8.861e-05
8.33411e-05
6.7266e-05
4.75079e-05
3.27289e-05
2.75785e-05
2.65282e-05
2.63233e-05
2.62842e-05
2.6277e-05
2.95078e-05
3.44851e-05
3.75435e-05
3.97733e-05
4.17588e-05
4.3837e-05
4.58372e-05
4.77745e-05
4.9705e-05
5.16144e-05
5.34224e-05
5.51422e-05
5.68584e-05
5.8563e-05
6.02461e-05
6.19014e-05
6.34199e-05
6.48668e-05
6.63092e-05
6.77397e-05
6.91512e-05
7.05451e-05
7.19079e-05
7.31073e-05
7.42502e-05
7.53901e-05
7.67118e-05
7.79827e-05
7.92123e-05
8.03944e-05
8.15301e-05
8.26237e-05
8.36662e-05
8.46624e-05
8.55527e-05
8.64065e-05
8.73055e-05
8.79487e-05
8.85663e-05
8.93933e-05
8.85484e-05
8.29462e-05
6.68142e-05
4.71187e-05
3.25609e-05
2.75459e-05
2.65226e-05
2.63223e-05
2.6284e-05
2.6277e-05
3.52911e-05
4.07763e-05
4.23761e-05
4.42551e-05
4.59784e-05
4.76181e-05
4.9299e-05
5.10128e-05
5.27526e-05
5.44967e-05
5.61004e-05
5.76756e-05
5.92434e-05
6.07988e-05
6.23566e-05
6.39165e-05
6.53075e-05
6.6675e-05
6.80282e-05
6.93724e-05
7.0696e-05
7.19999e-05
7.32827e-05
7.44119e-05
7.5484e-05
7.65314e-05
7.76235e-05
7.88504e-05
8.00311e-05
8.11619e-05
8.22516e-05
8.33025e-05
8.42966e-05
8.52701e-05
8.61416e-05
8.69574e-05
8.78043e-05
8.84028e-05
8.89853e-05
8.95903e-05
8.84561e-05
8.23965e-05
6.62012e-05
4.65807e-05
3.23316e-05
2.75017e-05
2.65149e-05
2.6321e-05
2.62838e-05
2.6277e-05
6.05602e-05
5.1859e-05
5.0412e-05
5.07574e-05
5.16603e-05
5.27645e-05
5.40361e-05
5.54348e-05
5.68396e-05
5.82147e-05
5.94501e-05
6.0727e-05
6.20224e-05
6.34453e-05
6.48814e-05
6.63073e-05
6.75629e-05
6.8814e-05
7.006e-05
7.12976e-05
7.25116e-05
7.37101e-05
7.48917e-05
7.59478e-05
7.6934e-05
7.79106e-05
7.88688e-05
7.98947e-05
8.10141e-05
8.20887e-05
8.31166e-05
8.41006e-05
8.50411e-05
8.59598e-05
8.68074e-05
8.76092e-05
8.83891e-05
8.89402e-05
8.94386e-05
8.97786e-05
8.83147e-05
8.16802e-05
6.54281e-05
4.59042e-05
3.20484e-05
2.74475e-05
2.65055e-05
2.63194e-05
2.62836e-05
2.62769e-05
8.09686e-05
6.37725e-05
5.88382e-05
5.75404e-05
5.7466e-05
5.81009e-05
5.90019e-05
6.00577e-05
6.12096e-05
6.22898e-05
6.33041e-05
6.43669e-05
6.54509e-05
6.65518e-05
6.76816e-05
6.8937e-05
7.00645e-05
7.11905e-05
7.23126e-05
7.34269e-05
7.45164e-05
7.56006e-05
7.66818e-05
7.76588e-05
7.85537e-05
7.94409e-05
8.03179e-05
8.11836e-05
8.21357e-05
8.31305e-05
8.40885e-05
8.50053e-05
8.58805e-05
8.67284e-05
8.75095e-05
8.82918e-05
8.90264e-05
8.95004e-05
8.98336e-05
8.99204e-05
8.80907e-05
8.07845e-05
6.4518e-05
4.5089e-05
3.17211e-05
2.73854e-05
2.64947e-05
2.63175e-05
2.62833e-05
2.62769e-05
8.9866e-05
7.02875e-05
6.42773e-05
6.27254e-05
6.23527e-05
6.28582e-05
6.36284e-05
6.45249e-05
6.54994e-05
6.63427e-05
6.71711e-05
6.80391e-05
6.89382e-05
6.98445e-05
7.07604e-05
7.1643e-05
7.26413e-05
7.36386e-05
7.4636e-05
7.56284e-05
7.66131e-05
7.75923e-05
7.85659e-05
7.94718e-05
8.02762e-05
8.10698e-05
8.18556e-05
8.26268e-05
8.33922e-05
8.4263e-05
8.5135e-05
8.59686e-05
8.67686e-05
8.75409e-05
8.82491e-05
8.89562e-05
8.95881e-05
8.99825e-05
9.02145e-05
8.99786e-05
8.77349e-05
7.97355e-05
6.34675e-05
4.41687e-05
3.13619e-05
2.73178e-05
2.6483e-05
2.63155e-05
2.62829e-05
2.62768e-05
8.91335e-05
7.03312e-05
6.53135e-05
6.50518e-05
6.56539e-05
6.63548e-05
6.73355e-05
6.82934e-05
6.92273e-05
6.99742e-05
7.07148e-05
7.14676e-05
7.22338e-05
7.30013e-05
7.37781e-05
7.4498e-05
7.52342e-05
7.61161e-05
7.70017e-05
7.78827e-05
7.87522e-05
7.96165e-05
8.04796e-05
8.12999e-05
8.20106e-05
8.27126e-05
8.34037e-05
8.40847e-05
8.47578e-05
8.54209e-05
8.62066e-05
8.69552e-05
8.76686e-05
8.83496e-05
8.89788e-05
8.96057e-05
9.01273e-05
9.04327e-05
9.05398e-05
8.99458e-05
8.72334e-05
7.85616e-05
6.23166e-05
4.31704e-05
3.09853e-05
2.72475e-05
2.64707e-05
2.63134e-05
2.62826e-05
2.62768e-05
7.4891e-05
6.11045e-05
6.00972e-05
6.35286e-05
6.60822e-05
6.8021e-05
6.95387e-05
7.08819e-05
7.20671e-05
7.31313e-05
7.4062e-05
7.49088e-05
7.56998e-05
7.64301e-05
7.71161e-05
7.757e-05
7.80427e-05
7.87352e-05
7.94637e-05
8.01994e-05
8.09252e-05
8.16471e-05
8.23591e-05
8.30526e-05
8.36762e-05
8.42867e-05
8.48915e-05
8.54856e-05
8.6066e-05
8.66395e-05
8.7244e-05
8.78977e-05
8.8527e-05
8.91148e-05
8.96582e-05
9.01917e-05
9.06008e-05
9.08087e-05
9.0763e-05
8.97864e-05
8.65916e-05
7.7243e-05
6.10879e-05
4.21212e-05
3.06062e-05
2.71773e-05
2.64584e-05
2.63114e-05
2.62823e-05
2.62767e-05
3.73453e-05
4.47364e-05
5.01818e-05
5.71793e-05
6.29167e-05
6.68061e-05
6.9614e-05
7.17836e-05
7.33027e-05
7.46423e-05
7.59763e-05
7.7144e-05
7.81373e-05
7.90366e-05
7.98173e-05
8.02318e-05
8.06326e-05
8.11996e-05
8.17807e-05
8.23656e-05
8.29471e-05
8.35312e-05
8.41106e-05
8.46825e-05
8.5224e-05
8.57525e-05
8.62719e-05
8.6776e-05
8.72719e-05
8.77573e-05
8.82313e-05
8.87754e-05
8.93072e-05
8.97985e-05
9.02557e-05
9.06799e-05
9.09613e-05
9.10622e-05
9.08411e-05
8.94695e-05
8.57428e-05
7.57684e-05
5.97104e-05
4.09993e-05
3.02261e-05
2.71073e-05
2.64461e-05
2.63093e-05
2.62819e-05
2.62767e-05
2.95942e-05
3.5148e-05
4.01608e-05
4.71145e-05
5.48295e-05
6.14269e-05
6.64774e-05
6.99005e-05
7.25609e-05
7.46281e-05
7.61873e-05
7.75434e-05
7.86804e-05
7.9672e-05
8.04973e-05
8.13435e-05
8.21733e-05
8.2882e-05
8.34893e-05
8.4058e-05
8.46034e-05
8.51328e-05
8.56426e-05
8.61392e-05
8.66127e-05
8.70641e-05
8.7505e-05
8.79308e-05
8.83378e-05
8.87346e-05
8.91194e-05
8.95326e-05
8.9964e-05
9.03499e-05
9.07093e-05
9.10083e-05
9.11649e-05
9.11381e-05
9.06793e-05
8.89153e-05
8.45933e-05
7.40359e-05
5.80427e-05
3.976e-05
2.98235e-05
2.70329e-05
2.64329e-05
2.6307e-05
2.62816e-05
2.62766e-05
2.7612e-05
3.07529e-05
3.39448e-05
3.83374e-05
4.43201e-05
5.12881e-05
5.81696e-05
6.39122e-05
6.83167e-05
7.16095e-05
7.41695e-05
7.63143e-05
7.80246e-05
7.94282e-05
8.06144e-05
8.16498e-05
8.25643e-05
8.33849e-05
8.41355e-05
8.48327e-05
8.54817e-05
8.60802e-05
8.66492e-05
8.7177e-05
8.76224e-05
8.80243e-05
8.84043e-05
8.87608e-05
8.90957e-05
8.9414e-05
8.97124e-05
9.00375e-05
9.03615e-05
9.06473e-05
9.08924e-05
9.10594e-05
9.10878e-05
9.08941e-05
9.0146e-05
8.79932e-05
8.29353e-05
7.19096e-05
5.59016e-05
3.83358e-05
2.9379e-05
2.69498e-05
2.64178e-05
2.63044e-05
2.62811e-05
2.62766e-05
2.69724e-05
2.8746e-05
3.08104e-05
3.33131e-05
3.67317e-05
4.11894e-05
4.66902e-05
5.28078e-05
5.87239e-05
6.40297e-05
6.83429e-05
7.1814e-05
7.45861e-05
7.68068e-05
7.86795e-05
8.02625e-05
8.15944e-05
8.27617e-05
8.37833e-05
8.46899e-05
8.54914e-05
8.62085e-05
8.6857e-05
8.74274e-05
8.78825e-05
8.82753e-05
8.86294e-05
8.89488e-05
8.92343e-05
8.94952e-05
8.97619e-05
9.00257e-05
9.02563e-05
9.0444e-05
9.0587e-05
9.06273e-05
9.05234e-05
9.01404e-05
8.90463e-05
8.65121e-05
8.05512e-05
6.92417e-05
5.31476e-05
3.66227e-05
2.88922e-05
2.68562e-05
2.64004e-05
2.63012e-05
2.62806e-05
2.62765e-05
2.67062e-05
2.7801e-05
2.91057e-05
3.07214e-05
3.26723e-05
3.51452e-05
3.82472e-05
4.21202e-05
4.67516e-05
5.18912e-05
5.71211e-05
6.19332e-05
6.60941e-05
6.97166e-05
7.27578e-05
7.53088e-05
7.7463e-05
7.93072e-05
8.09411e-05
8.23683e-05
8.35693e-05
8.45999e-05
8.54777e-05
8.61946e-05
8.67561e-05
8.72388e-05
8.76511e-05
8.80068e-05
8.83523e-05
8.86507e-05
8.89029e-05
8.91191e-05
8.9298e-05
8.94271e-05
8.94823e-05
8.94159e-05
8.91921e-05
8.85959e-05
8.7167e-05
8.41408e-05
7.74304e-05
6.58331e-05
4.95829e-05
3.47341e-05
2.83771e-05
2.67543e-05
2.63808e-05
2.62976e-05
2.62799e-05
2.62764e-05
2.65683e-05
2.72953e-05
2.81624e-05
2.91984e-05
3.04604e-05
3.20058e-05
3.37471e-05
3.59412e-05
3.8548e-05
4.16776e-05
4.52851e-05
4.93242e-05
5.36682e-05
5.8032e-05
6.21643e-05
6.5917e-05
6.92231e-05
7.21195e-05
7.46259e-05
7.67687e-05
7.86051e-05
8.01509e-05
8.14218e-05
8.24868e-05
8.3387e-05
8.41572e-05
8.48179e-05
8.53668e-05
8.58342e-05
8.62177e-05
8.6539e-05
8.68083e-05
8.70266e-05
8.7181e-05
8.72241e-05
8.71246e-05
8.67757e-05
8.59751e-05
8.42322e-05
8.06701e-05
7.32297e-05
6.13667e-05
4.51862e-05
3.27616e-05
2.78659e-05
2.66491e-05
2.63597e-05
2.62935e-05
2.62792e-05
2.62762e-05
2.64847e-05
2.69915e-05
2.75921e-05
2.82972e-05
2.91276e-05
3.01134e-05
3.12938e-05
3.26561e-05
3.41669e-05
3.59856e-05
3.80413e-05
4.03748e-05
4.31097e-05
4.62259e-05
4.96759e-05
5.33603e-05
5.71184e-05
6.08045e-05
6.42397e-05
6.7309e-05
7.00021e-05
7.23128e-05
7.4258e-05
7.58926e-05
7.72801e-05
7.8445e-05
7.94355e-05
8.02926e-05
8.10307e-05
8.16633e-05
8.22059e-05
8.2677e-05
8.30651e-05
8.33635e-05
8.3516e-05
8.34089e-05
8.29856e-05
8.20648e-05
8.01309e-05
7.58759e-05
6.76941e-05
5.54812e-05
4.02503e-05
3.06932e-05
2.73974e-05
2.65481e-05
2.63385e-05
2.62893e-05
2.62784e-05
2.62761e-05
2.64282e-05
2.67914e-05
2.72185e-05
2.77152e-05
2.82909e-05
2.89584e-05
2.97346e-05
3.06404e-05
3.17015e-05
3.28629e-05
3.40756e-05
3.54919e-05
3.71472e-05
3.90152e-05
4.11375e-05
4.35638e-05
4.62565e-05
4.91694e-05
5.22664e-05
5.54137e-05
5.84518e-05
6.12582e-05
6.37869e-05
6.60307e-05
6.80219e-05
6.97905e-05
7.13521e-05
7.27382e-05
7.39706e-05
7.50467e-05
7.59937e-05
7.68212e-05
7.75195e-05
7.80701e-05
7.83855e-05
7.83375e-05
7.78638e-05
7.68351e-05
7.45141e-05
6.92743e-05
6.05138e-05
4.79675e-05
3.54025e-05
2.90062e-05
2.70013e-05
2.64585e-05
2.6319e-05
2.62853e-05
2.62776e-05
2.6276e-05
2.63873e-05
2.66499e-05
2.69574e-05
2.73136e-05
2.77238e-05
2.81948e-05
2.87351e-05
2.93518e-05
3.00368e-05
3.08174e-05
3.17112e-05
3.27383e-05
3.37916e-05
3.49826e-05
3.63636e-05
3.79054e-05
3.96069e-05
4.15386e-05
4.37121e-05
4.60911e-05
4.86186e-05
5.11754e-05
5.36614e-05
5.60369e-05
5.82729e-05
6.03483e-05
6.22763e-05
6.4055e-05
6.5662e-05
6.71215e-05
6.844e-05
6.95955e-05
7.05819e-05
7.1335e-05
7.17764e-05
7.17345e-05
7.11847e-05
6.98558e-05
6.67648e-05
6.06144e-05
5.14164e-05
3.98075e-05
3.13981e-05
2.78052e-05
2.67015e-05
2.63868e-05
2.63028e-05
2.62818e-05
2.62769e-05
2.62758e-05
2.63562e-05
2.65449e-05
2.67657e-05
2.7022e-05
2.73173e-05
2.76535e-05
2.80306e-05
2.8456e-05
2.89356e-05
2.94768e-05
3.00896e-05
3.07865e-05
3.15839e-05
3.25028e-05
3.34639e-05
3.44543e-05
3.56126e-05
3.69593e-05
3.85006e-05
4.02183e-05
4.2125e-05
4.41688e-05
4.6271e-05
4.83772e-05
5.04445e-05
5.24482e-05
5.43546e-05
5.61537e-05
5.7821e-05
5.93522e-05
6.07288e-05
6.19283e-05
6.29086e-05
6.36065e-05
6.38892e-05
6.36327e-05
6.2819e-05
6.07988e-05
5.66242e-05
4.99646e-05
4.11635e-05
3.32647e-05
2.87122e-05
2.70413e-05
2.64982e-05
2.63356e-05
2.62907e-05
2.62791e-05
2.62764e-05
2.62757e-05
2.63316e-05
2.6463e-05
2.66176e-05
2.67976e-05
2.7005e-05
2.72421e-05
2.7511e-05
2.78146e-05
2.81563e-05
2.85404e-05
2.8973e-05
2.94624e-05
3.00104e-05
3.05994e-05
3.12741e-05
3.20555e-05
3.29677e-05
3.39538e-05
3.50618e-05
3.63125e-05
3.772e-05
3.92806e-05
4.09369e-05
4.26344e-05
4.43394e-05
4.60241e-05
4.76614e-05
4.92251e-05
5.06937e-05
5.20297e-05
5.31527e-05
5.40724e-05
5.47306e-05
5.50426e-05
5.48706e-05
5.42234e-05
5.26389e-05
4.95955e-05
4.49919e-05
3.90434e-05
3.32542e-05
2.91378e-05
2.73079e-05
2.66137e-05
2.63771e-05
2.63037e-05
2.62829e-05
2.62773e-05
2.6276e-05
2.62757e-05
2.63115e-05
2.63975e-05
2.65009e-05
2.66236e-05
2.67673e-05
2.69332e-05
2.71227e-05
2.73373e-05
2.7579e-05
2.78504e-05
2.81553e-05
2.84764e-05
2.88347e-05
2.92388e-05
2.9701e-05
3.02376e-05
3.08687e-05
3.15946e-05
3.24316e-05
3.33998e-05
3.44327e-05
3.55981e-05
3.68493e-05
3.8137e-05
3.94296e-05
4.06969e-05
4.19069e-05
4.30333e-05
4.40497e-05
4.49279e-05
4.56285e-05
4.60568e-05
4.61459e-05
4.59206e-05
4.52473e-05
4.3829e-05
4.16185e-05
3.86262e-05
3.50163e-05
3.14251e-05
2.87379e-05
2.72975e-05
2.66542e-05
2.64024e-05
2.63145e-05
2.62867e-05
2.62785e-05
2.62763e-05
2.62757e-05
2.62756e-05
2.62953e-05
2.6346e-05
2.64105e-05
2.649e-05
2.65853e-05
2.6697e-05
2.68259e-05
2.69725e-05
2.71335e-05
2.73094e-05
2.75033e-05
2.77176e-05
2.79557e-05
2.82234e-05
2.85295e-05
2.8877e-05
2.92695e-05
2.97376e-05
3.02979e-05
3.09598e-05
3.17213e-05
3.25733e-05
3.34731e-05
3.43577e-05
3.52299e-05
3.60582e-05
3.68134e-05
3.74674e-05
3.79921e-05
3.83573e-05
3.85195e-05
3.84838e-05
3.81768e-05
3.74622e-05
3.63799e-05
3.49361e-05
3.31903e-05
3.10951e-05
2.92251e-05
2.78476e-05
2.70093e-05
2.65788e-05
2.63883e-05
2.63137e-05
2.62875e-05
2.6279e-05
2.62765e-05
2.62758e-05
2.62756e-05
2.62756e-05
2.62822e-05
2.63052e-05
2.63406e-05
2.63865e-05
2.64423e-05
2.65084e-05
2.6585e-05
2.6672e-05
2.67694e-05
2.68775e-05
2.69967e-05
2.71282e-05
2.72735e-05
2.74266e-05
2.75974e-05
2.77948e-05
2.80276e-05
2.83058e-05
2.864e-05
2.90348e-05
2.94855e-05
2.99816e-05
3.05066e-05
3.10352e-05
3.15417e-05
3.19997e-05
3.23816e-05
3.26604e-05
3.28089e-05
3.28275e-05
3.27087e-05
3.23523e-05
3.1795e-05
3.1042e-05
3.01495e-05
2.92083e-05
2.83133e-05
2.75564e-05
2.69969e-05
2.66369e-05
2.6437e-05
2.63405e-05
2.62993e-05
2.62836e-05
2.62781e-05
2.62763e-05
2.62758e-05
2.62756e-05
2.62756e-05
2.62756e-05
2.62758e-05
2.62811e-05
2.62912e-05
2.63066e-05
2.63274e-05
2.63533e-05
2.63846e-05
2.64215e-05
2.64636e-05
2.65102e-05
2.65595e-05
2.66126e-05
2.66709e-05
2.67344e-05
2.68047e-05
2.6884e-05
2.69765e-05
2.7085e-05
2.72117e-05
2.73562e-05
2.75146e-05
2.76804e-05
2.78459e-05
2.80004e-05
2.81328e-05
2.82325e-05
2.82893e-05
2.82943e-05
2.8242e-05
2.8134e-05
2.79684e-05
2.77519e-05
2.75037e-05
2.72445e-05
2.6996e-05
2.67771e-05
2.66001e-05
2.64696e-05
2.63828e-05
2.63306e-05
2.62988e-05
2.62828e-05
2.6278e-05
2.62765e-05
2.62759e-05
2.62756e-05
2.62756e-05
2.62756e-05
2.62756e-05
2.62756e-05
)
;

boundaryField
{
    AXIS
    {
        type            empty;
    }
    OUTLET
    {
        type            calculated;
        value           nonuniform List<scalar> 
25
(
2.6277e-05
2.6277e-05
2.6277e-05
2.6277e-05
2.6277e-05
2.62769e-05
2.62769e-05
2.62768e-05
2.62768e-05
2.62767e-05
2.62767e-05
2.62766e-05
2.62766e-05
2.62765e-05
2.62764e-05
2.62762e-05
2.62761e-05
2.6276e-05
2.62758e-05
2.62757e-05
2.62757e-05
2.62756e-05
2.62756e-05
2.62756e-05
2.62756e-05
)
;
    }
    COFLOW
    {
        type            calculated;
        value           uniform 2.62756e-05;
    }
    PILOT
    {
        type            calculated;
        value           uniform 0.000100126;
    }
    FUEL
    {
        type            calculated;
        value           uniform 2.61542e-05;
    }
    WALL
    {
        type            calculated;
        value           nonuniform List<scalar> 
50
(
2.62758e-05
2.62811e-05
2.62912e-05
2.63066e-05
2.63274e-05
2.63533e-05
2.63846e-05
2.64215e-05
2.64636e-05
2.65102e-05
2.65595e-05
2.66126e-05
2.66709e-05
2.67344e-05
2.68047e-05
2.6884e-05
2.69765e-05
2.7085e-05
2.72117e-05
2.73562e-05
2.75146e-05
2.76804e-05
2.78459e-05
2.80004e-05
2.81328e-05
2.82325e-05
2.82893e-05
2.82943e-05
2.8242e-05
2.8134e-05
2.79684e-05
2.77519e-05
2.75037e-05
2.72445e-05
2.6996e-05
2.67771e-05
2.66001e-05
2.64696e-05
2.63828e-05
2.63306e-05
2.62988e-05
2.62828e-05
2.6278e-05
2.62765e-05
2.62759e-05
2.62756e-05
2.62756e-05
2.62756e-05
2.62756e-05
2.62756e-05
)
;
    }
    front
    {
        type            wedge;
    }
    back
    {
        type            wedge;
    }
}


// ************************************************************************* //
