/*--------------------------------*- C++ -*----------------------------------*\
| =========                 |                                                 |
| \\      /  F ield         | OpenFOAM: The Open Source CFD Toolbox           |
|  \\    /   O peration     | Version:  2.4.x                                 |
|   \\  /    A nd           | Web:      www.OpenFOAM.org                      |
|    \\/     M anipulation  |                                                 |
\*---------------------------------------------------------------------------*/
FoamFile
{
    version     2.0;
    format      ascii;
    class       volScalarField;
    location    "0.07";
    object      thermo:psi;
}
// * * * * * * * * * * * * * * * * * * * * * * * * * * * * * * * * * * * * * //

dimensions      [0 -2 2 0 0 0 0];

internalField   nonuniform List<scalar> 
1250
(
1.0013e-05
8.92415e-06
8.0051e-06
7.29003e-06
6.70828e-06
6.23102e-06
5.83097e-06
5.49017e-06
5.18215e-06
4.85949e-06
4.573e-06
4.32389e-06
4.0956e-06
3.88685e-06
3.69888e-06
3.52447e-06
3.3704e-06
3.23691e-06
3.11376e-06
2.99876e-06
2.89129e-06
2.79036e-06
2.69601e-06
2.6168e-06
2.53443e-06
2.45427e-06
2.3798e-06
2.31169e-06
2.24826e-06
2.19039e-06
2.13672e-06
2.08695e-06
2.04266e-06
2.00262e-06
1.96634e-06
1.93333e-06
1.8992e-06
1.87587e-06
1.85622e-06
1.8292e-06
1.87929e-06
2.13897e-06
3.12942e-06
5.40777e-06
8.99624e-06
1.11361e-05
1.16687e-05
1.17771e-05
1.17979e-05
1.18017e-05
9.93862e-06
8.75647e-06
7.83844e-06
7.13623e-06
6.57448e-06
6.11929e-06
5.74083e-06
5.4189e-06
5.08354e-06
4.77129e-06
4.49579e-06
4.25589e-06
4.03478e-06
3.83443e-06
3.65193e-06
3.48254e-06
3.33375e-06
3.20443e-06
3.08427e-06
2.97222e-06
2.86706e-06
2.76838e-06
2.6762e-06
2.59879e-06
2.52243e-06
2.44317e-06
2.37e-06
2.3027e-06
2.24035e-06
2.1832e-06
2.13022e-06
2.08112e-06
2.03702e-06
1.99756e-06
1.96185e-06
1.92929e-06
1.8957e-06
1.87273e-06
1.85333e-06
1.82783e-06
1.8807e-06
2.14397e-06
3.13797e-06
5.42258e-06
9.00924e-06
1.11397e-05
1.16694e-05
1.17772e-05
1.17979e-05
1.18017e-05
9.71175e-06
8.31811e-06
7.42211e-06
6.7685e-06
6.26952e-06
5.88155e-06
5.53243e-06
5.18181e-06
4.86509e-06
4.58021e-06
4.32872e-06
4.10839e-06
3.90612e-06
3.7216e-06
3.55031e-06
3.39266e-06
3.25538e-06
3.13428e-06
3.0211e-06
2.91491e-06
2.81496e-06
2.72133e-06
2.63372e-06
2.56047e-06
2.49351e-06
2.41911e-06
2.3485e-06
2.28299e-06
2.22285e-06
2.16732e-06
2.11596e-06
2.06841e-06
2.02504e-06
1.98651e-06
1.95207e-06
1.92049e-06
1.88791e-06
1.86577e-06
1.84722e-06
1.82532e-06
1.88389e-06
2.15608e-06
3.15977e-06
5.46159e-06
9.04425e-06
1.11491e-05
1.16712e-05
1.17775e-05
1.1798e-05
1.18017e-05
9.083e-06
7.471e-06
6.69418e-06
6.20743e-06
5.81747e-06
5.44204e-06
5.11251e-06
4.81956e-06
4.55058e-06
4.30503e-06
4.09016e-06
3.90021e-06
3.72306e-06
3.55838e-06
3.40594e-06
3.26518e-06
3.14335e-06
3.03362e-06
2.92983e-06
2.83203e-06
2.74025e-06
2.65392e-06
2.57345e-06
2.50585e-06
2.444e-06
2.38452e-06
2.31693e-06
2.25477e-06
2.19721e-06
2.14414e-06
2.09522e-06
2.04998e-06
2.00846e-06
1.97042e-06
1.93777e-06
1.90748e-06
1.87679e-06
1.85592e-06
1.83848e-06
1.82218e-06
1.88938e-06
2.17602e-06
3.19595e-06
5.52738e-06
9.103e-06
1.11648e-05
1.16741e-05
1.1778e-05
1.1798e-05
1.18017e-05
7.23914e-06
5.98371e-06
5.70091e-06
5.377e-06
5.10082e-06
4.85481e-06
4.61842e-06
4.39311e-06
4.17949e-06
3.97975e-06
3.80878e-06
3.65111e-06
3.50354e-06
3.36567e-06
3.23505e-06
3.11122e-06
3.00709e-06
2.90972e-06
2.81793e-06
2.73097e-06
2.64923e-06
2.57227e-06
2.49984e-06
2.43883e-06
2.38307e-06
2.33052e-06
2.27727e-06
2.2187e-06
2.16467e-06
2.115e-06
2.06902e-06
2.02637e-06
1.98753e-06
1.95096e-06
1.91944e-06
1.89103e-06
1.86262e-06
1.84356e-06
1.82768e-06
1.81969e-06
1.89699e-06
2.20402e-06
3.24595e-06
5.62018e-06
9.18413e-06
1.11861e-05
1.1678e-05
1.17787e-05
1.17982e-05
1.18018e-05
3.37051e-06
4.28863e-06
4.48426e-06
4.44463e-06
4.33235e-06
4.19821e-06
4.05002e-06
3.89521e-06
3.74864e-06
3.61337e-06
3.49844e-06
3.38477e-06
3.27468e-06
3.15895e-06
3.0482e-06
2.94394e-06
2.85682e-06
2.77382e-06
2.6947e-06
2.61946e-06
2.54875e-06
2.48177e-06
2.41836e-06
2.36392e-06
2.31491e-06
2.26796e-06
2.22341e-06
2.17671e-06
2.12685e-06
2.08083e-06
2.03851e-06
1.9995e-06
1.96354e-06
1.92972e-06
1.89956e-06
1.8721e-06
1.8465e-06
1.82932e-06
1.81678e-06
1.81853e-06
1.90729e-06
2.24092e-06
3.31049e-06
5.73997e-06
9.28583e-06
1.12122e-05
1.16829e-05
1.17796e-05
1.17983e-05
1.18018e-05
2.18219e-06
3.18433e-06
3.60439e-06
3.72441e-06
3.72684e-06
3.65949e-06
3.56912e-06
3.46843e-06
3.36398e-06
3.27053e-06
3.18663e-06
3.10251e-06
3.02038e-06
2.94038e-06
2.86152e-06
2.777e-06
2.70457e-06
2.63512e-06
2.56863e-06
2.50513e-06
2.44546e-06
2.38824e-06
2.33324e-06
2.28534e-06
2.24295e-06
2.20222e-06
2.16318e-06
2.1258e-06
2.08527e-06
2.04386e-06
2.00545e-06
1.97001e-06
1.93736e-06
1.90687e-06
1.87966e-06
1.85332e-06
1.82964e-06
1.81539e-06
1.80899e-06
1.81992e-06
1.92147e-06
2.28788e-06
3.38873e-06
5.88913e-06
9.40553e-06
1.12424e-05
1.16884e-05
1.17805e-05
1.17985e-05
1.18018e-05
1.88051e-06
2.79625e-06
3.20439e-06
3.31152e-06
3.3284e-06
3.27508e-06
3.20352e-06
3.12609e-06
3.04675e-06
2.98099e-06
2.91907e-06
2.85688e-06
2.79503e-06
2.73502e-06
2.67663e-06
2.62261e-06
2.56291e-06
2.50537e-06
2.44989e-06
2.39666e-06
2.34566e-06
2.29669e-06
2.24967e-06
2.2074e-06
2.1711e-06
2.13631e-06
2.10283e-06
2.07092e-06
2.04014e-06
2.00528e-06
1.9713e-06
1.93993e-06
1.91084e-06
1.88372e-06
1.8596e-06
1.83638e-06
1.81655e-06
1.80521e-06
1.80254e-06
1.82498e-06
1.94141e-06
2.3442e-06
3.48224e-06
6.0642e-06
9.53958e-06
1.12753e-05
1.16945e-05
1.17816e-05
1.17986e-05
1.18018e-05
1.93304e-06
2.87215e-06
3.20211e-06
3.19046e-06
3.11945e-06
3.04905e-06
2.96412e-06
2.88666e-06
2.81549e-06
2.76065e-06
2.70874e-06
2.65835e-06
2.6092e-06
2.56183e-06
2.51565e-06
2.47443e-06
2.43346e-06
2.38549e-06
2.339e-06
2.29428e-06
2.25157e-06
2.21049e-06
2.17077e-06
2.13421e-06
2.10355e-06
2.07407e-06
2.04584e-06
2.01877e-06
1.99273e-06
1.96779e-06
1.93802e-06
1.91058e-06
1.88531e-06
1.86199e-06
1.84104e-06
1.82099e-06
1.8051e-06
1.79693e-06
1.79874e-06
1.83376e-06
1.96769e-06
2.40908e-06
3.58888e-06
6.26254e-06
9.6833e-06
1.13097e-05
1.17009e-05
1.17827e-05
1.17988e-05
1.18019e-05
2.64883e-06
3.68591e-06
3.74486e-06
3.38651e-06
3.14669e-06
2.97874e-06
2.85536e-06
2.75323e-06
2.66833e-06
2.59585e-06
2.53478e-06
2.48144e-06
2.43334e-06
2.39043e-06
2.35182e-06
2.32742e-06
2.30289e-06
2.26749e-06
2.23144e-06
2.19612e-06
2.16231e-06
2.1298e-06
2.0987e-06
2.06926e-06
2.04333e-06
2.01861e-06
1.99477e-06
1.97197e-06
1.95029e-06
1.92944e-06
1.90773e-06
1.88436e-06
1.86259e-06
1.84293e-06
1.82525e-06
1.80865e-06
1.79663e-06
1.79187e-06
1.79902e-06
1.84743e-06
2.00019e-06
2.48439e-06
3.70778e-06
6.48108e-06
9.83133e-06
1.13442e-05
1.17072e-05
1.17837e-05
1.1799e-05
1.18019e-05
7.62907e-06
5.94356e-06
5.00695e-06
4.07397e-06
3.47113e-06
3.12243e-06
2.89755e-06
2.73748e-06
2.63088e-06
2.54236e-06
2.46027e-06
2.39093e-06
2.33384e-06
2.28404e-06
2.24221e-06
2.21944e-06
2.19828e-06
2.16981e-06
2.14171e-06
2.11435e-06
2.08797e-06
2.06232e-06
2.03759e-06
2.01386e-06
1.99196e-06
1.97112e-06
1.9512e-06
1.93239e-06
1.91437e-06
1.89721e-06
1.88093e-06
1.862e-06
1.84401e-06
1.82791e-06
1.81337e-06
1.80059e-06
1.79281e-06
1.79175e-06
1.80496e-06
1.86735e-06
2.04222e-06
2.57203e-06
3.84745e-06
6.727e-06
9.98322e-06
1.13788e-05
1.17136e-05
1.17848e-05
1.17992e-05
1.18019e-05
1.0243e-05
8.25097e-06
6.90267e-06
5.50312e-06
4.37e-06
3.63588e-06
3.18066e-06
2.90825e-06
2.71814e-06
2.58086e-06
2.48246e-06
2.40121e-06
2.33581e-06
2.28094e-06
2.23655e-06
2.19321e-06
2.15181e-06
2.11675e-06
2.08727e-06
2.06051e-06
2.03565e-06
2.0123e-06
1.99051e-06
1.96991e-06
1.95097e-06
1.93336e-06
1.9167e-06
1.90105e-06
1.88652e-06
1.87276e-06
1.85982e-06
1.84589e-06
1.83153e-06
1.8191e-06
1.80793e-06
1.79932e-06
1.79557e-06
1.7989e-06
1.82041e-06
1.89718e-06
2.09888e-06
2.68004e-06
4.02611e-06
7.01455e-06
1.01481e-05
1.14157e-05
1.17204e-05
1.1786e-05
1.17993e-05
1.18019e-05
1.11322e-05
9.76949e-06
8.6264e-06
7.35282e-06
6.01717e-06
4.85635e-06
3.98989e-06
3.41884e-06
3.05253e-06
2.80957e-06
2.63728e-06
2.50353e-06
2.40276e-06
2.3236e-06
2.25912e-06
2.20477e-06
2.15819e-06
2.11758e-06
2.08148e-06
2.04887e-06
2.01936e-06
1.99289e-06
1.96845e-06
1.94641e-06
1.92838e-06
1.91257e-06
1.89812e-06
1.88489e-06
1.87289e-06
1.86184e-06
1.85182e-06
1.84082e-06
1.83009e-06
1.82095e-06
1.81353e-06
1.80912e-06
1.80952e-06
1.81865e-06
1.85058e-06
1.94287e-06
2.18159e-06
2.82069e-06
4.27217e-06
7.36748e-06
1.03349e-05
1.14572e-05
1.17283e-05
1.17874e-05
1.17996e-05
1.1802e-05
1.14451e-05
1.06078e-05
9.74594e-06
8.83647e-06
7.78657e-06
6.67253e-06
5.58869e-06
4.65222e-06
3.9398e-06
3.42087e-06
3.06503e-06
2.813e-06
2.63043e-06
2.49485e-06
2.38727e-06
2.30083e-06
2.23095e-06
2.1719e-06
2.12185e-06
2.0787e-06
2.0416e-06
2.00928e-06
1.98082e-06
1.9564e-06
1.93741e-06
1.92141e-06
1.90739e-06
1.89508e-06
1.88445e-06
1.87498e-06
1.8654e-06
1.85607e-06
1.84823e-06
1.84213e-06
1.83786e-06
1.83741e-06
1.84225e-06
1.85821e-06
1.90346e-06
2.01359e-06
2.305e-06
3.01101e-06
4.61966e-06
7.82734e-06
1.05458e-05
1.15041e-05
1.17373e-05
1.1789e-05
1.17999e-05
1.1802e-05
1.15796e-05
1.10415e-05
1.04494e-05
9.78136e-06
9.05809e-06
8.2516e-06
7.38247e-06
6.47341e-06
5.58323e-06
4.78413e-06
4.12437e-06
3.62258e-06
3.25422e-06
2.97329e-06
2.76167e-06
2.5991e-06
2.47127e-06
2.3681e-06
2.28128e-06
2.20872e-06
2.14985e-06
2.10097e-06
2.0605e-06
2.02824e-06
2.00349e-06
1.98264e-06
1.96519e-06
1.95046e-06
1.93629e-06
1.92426e-06
1.91434e-06
1.90604e-06
1.89937e-06
1.89472e-06
1.89303e-06
1.89601e-06
1.90521e-06
1.92961e-06
1.98982e-06
2.12738e-06
2.47813e-06
3.27946e-06
5.12924e-06
8.385e-06
1.07762e-05
1.15556e-05
1.17475e-05
1.1791e-05
1.18002e-05
1.18021e-05
1.16503e-05
1.12852e-05
1.08726e-05
1.04096e-05
9.88555e-06
9.29706e-06
8.69548e-06
8.01716e-06
7.30854e-06
6.57259e-06
5.84948e-06
5.1663e-06
4.54947e-06
4.02758e-06
3.60647e-06
3.27535e-06
3.01716e-06
2.81292e-06
2.65077e-06
2.52173e-06
2.41758e-06
2.33413e-06
2.26821e-06
2.21477e-06
2.17084e-06
2.13412e-06
2.10332e-06
2.07816e-06
2.05712e-06
2.04007e-06
2.02598e-06
2.01431e-06
2.00492e-06
1.99827e-06
1.99632e-06
2.00031e-06
2.01479e-06
2.0491e-06
2.12771e-06
2.30354e-06
2.73642e-06
3.68216e-06
5.87145e-06
9.03298e-06
1.10127e-05
1.16092e-05
1.17585e-05
1.17931e-05
1.18006e-05
1.18021e-05
1.16934e-05
1.14356e-05
1.11414e-05
1.08109e-05
1.04408e-05
1.00264e-05
9.56254e-06
9.06678e-06
8.56115e-06
8.00659e-06
7.44132e-06
6.86787e-06
6.27377e-06
5.6825e-06
5.11557e-06
4.59354e-06
4.13395e-06
3.74265e-06
3.42283e-06
3.16837e-06
2.96584e-06
2.80574e-06
2.67979e-06
2.57966e-06
2.4985e-06
2.43289e-06
2.37884e-06
2.33332e-06
2.29501e-06
2.26279e-06
2.23558e-06
2.21225e-06
2.19316e-06
2.17847e-06
2.17069e-06
2.17504e-06
2.19432e-06
2.23812e-06
2.33585e-06
2.57396e-06
3.132e-06
4.32344e-06
6.89881e-06
9.79711e-06
1.12366e-05
1.1661e-05
1.17695e-05
1.17953e-05
1.1801e-05
1.18022e-05
1.17228e-05
1.15364e-05
1.13232e-05
1.10828e-05
1.08142e-05
1.05152e-05
1.01833e-05
9.81608e-06
9.41116e-06
8.99629e-06
8.59189e-06
8.15316e-06
7.68135e-06
7.19571e-06
6.69646e-06
6.18476e-06
5.67967e-06
5.19617e-06
4.74292e-06
4.33662e-06
3.98867e-06
3.7007e-06
3.46548e-06
3.27401e-06
3.11605e-06
2.98431e-06
2.87411e-06
2.78081e-06
2.70122e-06
2.63413e-06
2.57683e-06
2.52801e-06
2.4876e-06
2.45615e-06
2.43793e-06
2.43963e-06
2.46486e-06
2.52231e-06
2.66076e-06
3.01479e-06
3.76809e-06
5.38604e-06
8.18112e-06
1.04959e-05
1.14314e-05
1.17072e-05
1.17797e-05
1.17974e-05
1.18014e-05
1.18023e-05
1.17441e-05
1.16085e-05
1.14529e-05
1.12767e-05
1.1079e-05
1.08587e-05
1.06142e-05
1.03456e-05
1.00592e-05
9.74748e-06
9.40839e-06
9.04041e-06
8.68522e-06
8.30828e-06
7.901e-06
7.48e-06
7.05238e-06
6.60869e-06
6.15599e-06
5.70959e-06
5.28385e-06
4.89705e-06
4.55776e-06
4.26319e-06
4.00943e-06
3.79223e-06
3.60483e-06
3.44324e-06
3.30587e-06
3.18751e-06
3.08542e-06
2.99946e-06
2.92848e-06
2.87554e-06
2.84474e-06
2.84671e-06
2.88342e-06
2.97639e-06
3.21068e-06
3.75988e-06
4.85886e-06
7.00339e-06
9.52604e-06
1.10413e-05
1.15824e-05
1.17444e-05
1.17882e-05
1.17992e-05
1.18018e-05
1.18023e-05
1.17603e-05
1.16625e-05
1.15496e-05
1.14208e-05
1.12751e-05
1.11128e-05
1.0935e-05
1.07398e-05
1.05262e-05
1.02928e-05
1.00382e-05
9.76025e-06
9.45638e-06
9.12377e-06
8.79421e-06
8.47293e-06
8.11897e-06
7.73432e-06
7.32619e-06
6.90749e-06
6.48217e-06
6.06685e-06
5.67814e-06
5.32301e-06
5.00403e-06
4.71967e-06
4.46954e-06
4.24995e-06
4.05952e-06
3.89483e-06
3.7545e-06
3.63779e-06
3.54601e-06
3.48244e-06
3.45677e-06
3.47895e-06
3.55212e-06
3.74451e-06
4.19158e-06
5.07274e-06
6.69074e-06
8.86087e-06
1.06255e-05
1.14115e-05
1.16866e-05
1.17711e-05
1.17946e-05
1.18006e-05
1.18021e-05
1.18024e-05
1.17732e-05
1.17048e-05
1.16251e-05
1.15335e-05
1.14293e-05
1.13121e-05
1.11813e-05
1.10365e-05
1.08771e-05
1.07021e-05
1.05102e-05
1.02995e-05
1.00712e-05
9.83414e-06
9.57297e-06
9.28342e-06
8.96188e-06
8.63282e-06
8.28431e-06
7.91529e-06
7.52821e-06
7.13077e-06
6.74172e-06
6.37406e-06
6.0331e-06
5.72128e-06
5.4396e-06
5.18854e-06
4.9673e-06
4.77721e-06
4.62497e-06
4.50516e-06
4.42192e-06
4.38304e-06
4.40397e-06
4.48488e-06
4.69236e-06
5.13033e-06
5.90946e-06
7.18979e-06
8.86455e-06
1.04387e-05
1.12801e-05
1.16273e-05
1.17495e-05
1.17877e-05
1.17987e-05
1.18016e-05
1.18023e-05
1.18024e-05
1.17837e-05
1.17388e-05
1.16852e-05
1.16221e-05
1.15489e-05
1.14653e-05
1.1371e-05
1.12656e-05
1.11488e-05
1.10199e-05
1.08779e-05
1.07312e-05
1.05711e-05
1.0395e-05
1.0199e-05
9.97855e-06
9.72841e-06
9.45219e-06
9.14805e-06
8.8143e-06
8.47823e-06
8.12159e-06
7.76302e-06
7.41786e-06
7.09366e-06
6.79561e-06
6.52768e-06
6.29177e-06
6.0893e-06
5.92188e-06
5.79306e-06
5.71607e-06
5.70013e-06
5.74021e-06
5.86261e-06
6.13294e-06
6.59122e-06
7.29434e-06
8.29845e-06
9.51605e-06
1.0614e-05
1.12852e-05
1.16066e-05
1.17363e-05
1.17821e-05
1.17967e-05
1.18009e-05
1.18021e-05
1.18024e-05
1.18025e-05
1.17922e-05
1.17656e-05
1.1732e-05
1.16909e-05
1.16418e-05
1.15847e-05
1.15194e-05
1.14458e-05
1.13658e-05
1.12794e-05
1.11853e-05
1.10828e-05
1.09705e-05
1.08464e-05
1.07071e-05
1.05523e-05
1.03814e-05
1.01831e-05
9.95323e-06
9.69183e-06
9.40387e-06
9.09683e-06
8.7888e-06
8.50127e-06
8.23132e-06
7.98669e-06
7.77296e-06
7.5947e-06
7.45611e-06
7.36195e-06
7.32091e-06
7.33036e-06
7.40925e-06
7.59755e-06
7.89642e-06
8.32289e-06
8.88605e-06
9.6412e-06
1.04009e-05
1.10213e-05
1.14274e-05
1.16452e-05
1.17436e-05
1.17825e-05
1.17963e-05
1.18007e-05
1.1802e-05
1.18024e-05
1.18025e-05
1.18025e-05
1.1799e-05
1.17869e-05
1.17685e-05
1.17446e-05
1.17156e-05
1.16814e-05
1.1642e-05
1.15975e-05
1.15479e-05
1.14934e-05
1.14337e-05
1.13684e-05
1.12969e-05
1.12222e-05
1.11398e-05
1.10458e-05
1.09364e-05
1.08079e-05
1.06566e-05
1.04821e-05
1.02882e-05
1.00812e-05
9.86899e-06
9.66222e-06
9.47027e-06
9.30173e-06
9.16468e-06
9.06667e-06
9.01525e-06
9.00905e-06
9.05056e-06
9.17629e-06
9.37816e-06
9.66141e-06
1.00142e-05
1.04081e-05
1.08052e-05
1.11598e-05
1.14336e-05
1.16154e-05
1.17183e-05
1.17685e-05
1.179e-05
1.17983e-05
1.18012e-05
1.18021e-05
1.18024e-05
1.18025e-05
1.18025e-05
1.18025e-05
1.18023e-05
1.17996e-05
1.17943e-05
1.17862e-05
1.17754e-05
1.17618e-05
1.17455e-05
1.17263e-05
1.17045e-05
1.16804e-05
1.1655e-05
1.16277e-05
1.15978e-05
1.15655e-05
1.15298e-05
1.14897e-05
1.14432e-05
1.13891e-05
1.13264e-05
1.12556e-05
1.11788e-05
1.10992e-05
1.10207e-05
1.09483e-05
1.08868e-05
1.08408e-05
1.08148e-05
1.08127e-05
1.08368e-05
1.08867e-05
1.09638e-05
1.10658e-05
1.11847e-05
1.13108e-05
1.14338e-05
1.1544e-05
1.16342e-05
1.17014e-05
1.17465e-05
1.17737e-05
1.17903e-05
1.17987e-05
1.18012e-05
1.1802e-05
1.18023e-05
1.18024e-05
1.18025e-05
1.18025e-05
1.18025e-05
1.18025e-05
)
;

boundaryField
{
    AXIS
    {
        type            empty;
    }
    OUTLET
    {
        type            calculated;
        value           nonuniform List<scalar> 
25
(
1.18017e-05
1.18017e-05
1.18017e-05
1.18017e-05
1.18018e-05
1.18018e-05
1.18018e-05
1.18018e-05
1.18019e-05
1.18019e-05
1.18019e-05
1.18019e-05
1.1802e-05
1.1802e-05
1.18021e-05
1.18021e-05
1.18022e-05
1.18023e-05
1.18023e-05
1.18024e-05
1.18024e-05
1.18025e-05
1.18025e-05
1.18025e-05
1.18025e-05
)
;
    }
    COFLOW
    {
        type            calculated;
        value           uniform 1.18025e-05;
    }
    PILOT
    {
        type            calculated;
        value           uniform 1.56801e-06;
    }
    FUEL
    {
        type            calculated;
        value           uniform 1.04958e-05;
    }
    WALL
    {
        type            calculated;
        value           nonuniform List<scalar> 
50
(
1.18023e-05
1.17996e-05
1.17943e-05
1.17862e-05
1.17754e-05
1.17618e-05
1.17455e-05
1.17263e-05
1.17045e-05
1.16804e-05
1.1655e-05
1.16277e-05
1.15978e-05
1.15655e-05
1.15298e-05
1.14897e-05
1.14432e-05
1.13891e-05
1.13264e-05
1.12556e-05
1.11788e-05
1.10992e-05
1.10207e-05
1.09483e-05
1.08868e-05
1.08408e-05
1.08148e-05
1.08127e-05
1.08368e-05
1.08867e-05
1.09638e-05
1.10658e-05
1.11847e-05
1.13108e-05
1.14338e-05
1.1544e-05
1.16342e-05
1.17014e-05
1.17465e-05
1.17737e-05
1.17903e-05
1.17987e-05
1.18012e-05
1.1802e-05
1.18023e-05
1.18024e-05
1.18025e-05
1.18025e-05
1.18025e-05
1.18025e-05
)
;
    }
    front
    {
        type            wedge;
    }
    back
    {
        type            wedge;
    }
}


// ************************************************************************* //
