/*--------------------------------*- C++ -*----------------------------------*\
| =========                 |                                                 |
| \\      /  F ield         | OpenFOAM: The Open Source CFD Toolbox           |
|  \\    /   O peration     | Version:  2.4.x                                 |
|   \\  /    A nd           | Web:      www.OpenFOAM.org                      |
|    \\/     M anipulation  |                                                 |
\*---------------------------------------------------------------------------*/
FoamFile
{
    version     2.0;
    format      ascii;
    class       volScalarField;
    location    "0.07";
    object      thermo:mu;
}
// * * * * * * * * * * * * * * * * * * * * * * * * * * * * * * * * * * * * * //

dimensions      [1 -1 -1 0 0 0 0];

internalField   nonuniform List<scalar> 
1250
(
1.88881e-05
2.08064e-05
2.27412e-05
2.45069e-05
2.61568e-05
2.76873e-05
2.91187e-05
3.0464e-05
3.17918e-05
3.32983e-05
3.47649e-05
3.6156e-05
3.75377e-05
3.8903e-05
4.02279e-05
4.1547e-05
4.27936e-05
4.39424e-05
4.50651e-05
4.61732e-05
4.72663e-05
4.83485e-05
4.94138e-05
5.03537e-05
5.13632e-05
5.23873e-05
5.33841e-05
5.43385e-05
5.5267e-05
5.61513e-05
5.70059e-05
5.78319e-05
5.85962e-05
5.93168e-05
5.99946e-05
6.06323e-05
6.13168e-05
6.18107e-05
6.22798e-05
6.30601e-05
6.27545e-05
5.90311e-05
4.73919e-05
3.32041e-05
2.27161e-05
1.90622e-05
1.83186e-05
1.81738e-05
1.81463e-05
1.81412e-05
1.90082e-05
2.11344e-05
2.31295e-05
2.49231e-05
2.65708e-05
2.80773e-05
2.94706e-05
3.07731e-05
3.22429e-05
3.37421e-05
3.51903e-05
3.65633e-05
3.79322e-05
3.9271e-05
4.05824e-05
4.1887e-05
4.31113e-05
4.42415e-05
4.53526e-05
4.64471e-05
4.75303e-05
4.86013e-05
4.96538e-05
5.05821e-05
5.15312e-05
5.255e-05
5.35355e-05
5.44838e-05
5.54016e-05
5.62792e-05
5.71269e-05
5.79453e-05
5.87095e-05
5.9423e-05
6.00928e-05
6.07242e-05
6.14007e-05
6.18885e-05
6.23541e-05
6.31062e-05
6.27429e-05
5.89578e-05
4.73136e-05
3.31408e-05
2.26899e-05
1.9057e-05
1.83177e-05
1.81737e-05
1.81462e-05
1.81412e-05
1.93831e-05
2.20401e-05
2.4159e-05
2.59796e-05
2.75699e-05
2.89535e-05
3.03193e-05
3.18118e-05
3.32924e-05
3.47496e-05
3.61513e-05
3.74825e-05
3.87995e-05
4.00905e-05
4.13744e-05
4.26379e-05
4.38096e-05
4.4904e-05
4.59838e-05
4.70519e-05
4.81104e-05
4.91534e-05
5.01784e-05
5.1077e-05
5.19332e-05
5.2907e-05
5.38708e-05
5.48051e-05
5.57011e-05
5.65633e-05
5.73939e-05
5.81947e-05
5.89531e-05
5.96562e-05
6.03082e-05
6.09261e-05
6.15874e-05
6.20612e-05
6.25137e-05
6.31983e-05
6.27169e-05
5.87809e-05
4.71151e-05
3.29754e-05
2.26198e-05
1.90434e-05
1.83153e-05
1.81733e-05
1.81462e-05
1.81412e-05
2.04973e-05
2.4021e-05
2.62e-05
2.77942e-05
2.92175e-05
3.07106e-05
3.21507e-05
3.35479e-05
3.49423e-05
3.6323e-05
3.76303e-05
3.88738e-05
4.01147e-05
4.13471e-05
4.25637e-05
4.37596e-05
4.48557e-05
4.58971e-05
4.69337e-05
4.79608e-05
4.89733e-05
4.99721e-05
5.09476e-05
5.18045e-05
5.26199e-05
5.34323e-05
5.43726e-05
5.52754e-05
5.61478e-05
5.69855e-05
5.77892e-05
5.85623e-05
5.92986e-05
6.0001e-05
6.06275e-05
6.12277e-05
6.18593e-05
6.23113e-05
6.27465e-05
6.33253e-05
6.26651e-05
5.84912e-05
4.67895e-05
3.27003e-05
2.25029e-05
1.90207e-05
1.83114e-05
1.81726e-05
1.81461e-05
1.81412e-05
2.45947e-05
2.85154e-05
2.96609e-05
3.10098e-05
3.22493e-05
3.34309e-05
3.46442e-05
3.58828e-05
3.71415e-05
3.84041e-05
3.95639e-05
4.07029e-05
4.18361e-05
4.29598e-05
4.40852e-05
4.52118e-05
4.62123e-05
4.71949e-05
4.81662e-05
4.91301e-05
5.00785e-05
5.10117e-05
5.1929e-05
5.27348e-05
5.34988e-05
5.42445e-05
5.50209e-05
5.58917e-05
5.67287e-05
5.75293e-05
5.82999e-05
5.90423e-05
5.97438e-05
6.04302e-05
6.10435e-05
6.16167e-05
6.22113e-05
6.26317e-05
6.30418e-05
6.34604e-05
6.25885e-05
5.80883e-05
4.6348e-05
3.23202e-05
2.23435e-05
1.89901e-05
1.83061e-05
1.81717e-05
1.81459e-05
1.81412e-05
4.27924e-05
3.64943e-05
3.54408e-05
3.56874e-05
3.63387e-05
3.71372e-05
3.80579e-05
3.90713e-05
4.00888e-05
4.10842e-05
4.19771e-05
4.29004e-05
4.38372e-05
4.48656e-05
4.59011e-05
4.69276e-05
4.78292e-05
4.87269e-05
4.962e-05
5.05064e-05
5.13749e-05
5.22316e-05
5.30755e-05
5.38282e-05
5.453e-05
5.52243e-05
5.59048e-05
5.66324e-05
5.7425e-05
5.81851e-05
5.89113e-05
5.96058e-05
6.0269e-05
6.09162e-05
6.15128e-05
6.20763e-05
6.26236e-05
6.30103e-05
6.33601e-05
6.35873e-05
6.2474e-05
5.75638e-05
4.57915e-05
3.18427e-05
2.21466e-05
1.89525e-05
1.82996e-05
1.81705e-05
1.81457e-05
1.81411e-05
5.73208e-05
4.50431e-05
4.14856e-05
4.05534e-05
4.05045e-05
4.09688e-05
4.16251e-05
4.2393e-05
4.32299e-05
4.40137e-05
4.47485e-05
4.55169e-05
4.6299e-05
4.70927e-05
4.79066e-05
4.88092e-05
4.96177e-05
5.04245e-05
5.12277e-05
5.20246e-05
5.28029e-05
5.35768e-05
5.4348e-05
5.50435e-05
5.56793e-05
5.63091e-05
5.6931e-05
5.75445e-05
5.82181e-05
5.89209e-05
5.95969e-05
6.02433e-05
6.08599e-05
6.14567e-05
6.2006e-05
6.2556e-05
6.30716e-05
6.34036e-05
6.36344e-05
6.36786e-05
6.22976e-05
5.6909e-05
4.51368e-05
3.12679e-05
2.1919e-05
1.89094e-05
1.82921e-05
1.81693e-05
1.81455e-05
1.81411e-05
6.35041e-05
4.95926e-05
4.53167e-05
4.42272e-05
4.39787e-05
4.43596e-05
4.49288e-05
4.55857e-05
4.62962e-05
4.69094e-05
4.75102e-05
4.81385e-05
4.87881e-05
4.94421e-05
5.01022e-05
5.07367e-05
5.14519e-05
5.21658e-05
5.28791e-05
5.35881e-05
5.4291e-05
5.49894e-05
5.56832e-05
5.63275e-05
5.68982e-05
5.74607e-05
5.80172e-05
5.85629e-05
5.91041e-05
5.97187e-05
6.03334e-05
6.09204e-05
6.14834e-05
6.20264e-05
6.25239e-05
6.30205e-05
6.34633e-05
6.37387e-05
6.38964e-05
6.37075e-05
6.20245e-05
5.61433e-05
4.43809e-05
3.06197e-05
2.16694e-05
1.88626e-05
1.82839e-05
1.81679e-05
1.81453e-05
1.81411e-05
6.29139e-05
4.94512e-05
4.59235e-05
4.57938e-05
4.62699e-05
4.68056e-05
4.7536e-05
4.82445e-05
4.89317e-05
4.94799e-05
5.00211e-05
5.05692e-05
5.11254e-05
5.16811e-05
5.22424e-05
5.27607e-05
5.32892e-05
5.39205e-05
5.45538e-05
5.51831e-05
5.58035e-05
5.64196e-05
5.70343e-05
5.76176e-05
5.81211e-05
5.86181e-05
5.9107e-05
5.95883e-05
6.00637e-05
6.05316e-05
6.10849e-05
6.16114e-05
6.21129e-05
6.25911e-05
6.30326e-05
6.34723e-05
6.38368e-05
6.40488e-05
6.41165e-05
6.36683e-05
6.16451e-05
5.52879e-05
4.35526e-05
2.99175e-05
2.14077e-05
1.88139e-05
1.82754e-05
1.81664e-05
1.81451e-05
1.8141e-05
5.2586e-05
4.27072e-05
4.20436e-05
4.45756e-05
4.64675e-05
4.79074e-05
4.90357e-05
5.0031e-05
5.09065e-05
5.16905e-05
5.23754e-05
5.2997e-05
5.35766e-05
5.41105e-05
5.461e-05
5.49375e-05
5.52771e-05
5.57729e-05
5.62936e-05
5.68189e-05
5.73364e-05
5.78502e-05
5.83561e-05
5.88483e-05
5.92901e-05
5.97221e-05
6.01498e-05
6.05694e-05
6.09789e-05
6.13832e-05
6.18088e-05
6.22681e-05
6.271e-05
6.31221e-05
6.35029e-05
6.38762e-05
6.4161e-05
6.43036e-05
6.4261e-05
6.35356e-05
6.1164e-05
5.43286e-05
4.26686e-05
2.91805e-05
2.11444e-05
1.87652e-05
1.82669e-05
1.8165e-05
1.81448e-05
1.8141e-05
2.58368e-05
3.1023e-05
3.48915e-05
3.99191e-05
4.40838e-05
4.69273e-05
4.89884e-05
5.05852e-05
5.17081e-05
5.26956e-05
5.36732e-05
5.45298e-05
5.52587e-05
5.59174e-05
5.64884e-05
5.67933e-05
5.70864e-05
5.74957e-05
5.79134e-05
5.83327e-05
5.87486e-05
5.91654e-05
5.95783e-05
5.99851e-05
6.03691e-05
6.07435e-05
6.11109e-05
6.14671e-05
6.1817e-05
6.21591e-05
6.24927e-05
6.28748e-05
6.32477e-05
6.35917e-05
6.39116e-05
6.42075e-05
6.44018e-05
6.44679e-05
6.42987e-05
6.32869e-05
6.05328e-05
5.32574e-05
4.16782e-05
2.83934e-05
2.08804e-05
1.87166e-05
1.82584e-05
1.81635e-05
1.81446e-05
1.8141e-05
2.04417e-05
2.43048e-05
2.78096e-05
3.27101e-05
3.82119e-05
4.2969e-05
4.66274e-05
4.9128e-05
5.10741e-05
5.25903e-05
5.37369e-05
5.47332e-05
5.55684e-05
5.62958e-05
5.69011e-05
5.75186e-05
5.81226e-05
5.86385e-05
5.90802e-05
5.94925e-05
5.98865e-05
6.02677e-05
6.06336e-05
6.09891e-05
6.13265e-05
6.16474e-05
6.19601e-05
6.22615e-05
6.25491e-05
6.28289e-05
6.30998e-05
6.33898e-05
6.36921e-05
6.39619e-05
6.42128e-05
6.442e-05
6.4526e-05
6.45007e-05
6.41599e-05
6.28637e-05
5.96834e-05
5.20008e-05
4.04808e-05
2.75252e-05
2.06009e-05
1.86651e-05
1.82492e-05
1.8162e-05
1.81443e-05
1.81409e-05
1.90666e-05
2.12465e-05
2.34669e-05
2.65325e-05
3.07323e-05
3.56693e-05
4.05973e-05
4.47392e-05
4.79244e-05
5.03195e-05
5.21873e-05
5.37534e-05
5.50045e-05
5.60326e-05
5.69022e-05
5.76607e-05
5.83301e-05
5.89299e-05
5.94777e-05
5.99854e-05
6.0457e-05
6.08908e-05
6.13023e-05
6.16829e-05
6.20028e-05
6.22906e-05
6.25617e-05
6.28155e-05
6.30531e-05
6.32783e-05
6.34888e-05
6.37172e-05
6.39442e-05
6.41438e-05
6.43141e-05
6.44282e-05
6.44435e-05
6.42985e-05
6.37488e-05
6.21713e-05
5.84654e-05
5.04613e-05
3.89467e-05
2.65289e-05
2.02924e-05
1.86074e-05
1.82388e-05
1.81602e-05
1.8144e-05
1.81409e-05
1.86232e-05
1.98532e-05
2.12865e-05
2.3027e-05
2.54099e-05
2.85293e-05
3.24024e-05
3.67464e-05
4.09844e-05
4.4804e-05
4.79138e-05
5.04254e-05
5.24374e-05
5.40536e-05
5.54188e-05
5.65741e-05
5.75473e-05
5.84002e-05
5.91468e-05
5.9809e-05
6.03939e-05
6.09164e-05
6.13881e-05
6.18023e-05
6.21322e-05
6.24162e-05
6.26714e-05
6.29008e-05
6.31051e-05
6.32913e-05
6.34805e-05
6.36668e-05
6.38289e-05
6.396e-05
6.40588e-05
6.40838e-05
6.40053e-05
6.37241e-05
6.2925e-05
6.10724e-05
5.67233e-05
4.85341e-05
3.69794e-05
2.53324e-05
1.99545e-05
1.85426e-05
1.82267e-05
1.8158e-05
1.81437e-05
1.81408e-05
1.84387e-05
1.91977e-05
2.01028e-05
2.12247e-05
2.25809e-05
2.43028e-05
2.64682e-05
2.91815e-05
3.24434e-05
3.60884e-05
3.98246e-05
4.32816e-05
4.62752e-05
4.88858e-05
5.10835e-05
5.29309e-05
5.4494e-05
5.58341e-05
5.70226e-05
5.80617e-05
5.89366e-05
5.96875e-05
6.03269e-05
6.08493e-05
6.12585e-05
6.16099e-05
6.19096e-05
6.21676e-05
6.24169e-05
6.26318e-05
6.28128e-05
6.29674e-05
6.30948e-05
6.31861e-05
6.32239e-05
6.31739e-05
6.30102e-05
6.25759e-05
6.15356e-05
5.93301e-05
5.44522e-05
4.60786e-05
3.44446e-05
2.40156e-05
1.95971e-05
1.8472e-05
1.82131e-05
1.81555e-05
1.81432e-05
1.81407e-05
1.8343e-05
1.8847e-05
1.94483e-05
2.01671e-05
2.10433e-05
2.21173e-05
2.33287e-05
2.48576e-05
2.66779e-05
2.88699e-05
3.14069e-05
3.42622e-05
3.73517e-05
4.04732e-05
4.34406e-05
4.61369e-05
4.85157e-05
5.06043e-05
5.24151e-05
5.39657e-05
5.52962e-05
5.64173e-05
5.73404e-05
5.81145e-05
5.8769e-05
5.93292e-05
5.98095e-05
6.02085e-05
6.0548e-05
6.08265e-05
6.10596e-05
6.12548e-05
6.14129e-05
6.15247e-05
6.15558e-05
6.14837e-05
6.12308e-05
6.065e-05
5.9384e-05
5.67964e-05
5.1408e-05
4.28672e-05
3.13363e-05
2.26426e-05
1.92426e-05
1.83991e-05
1.81985e-05
1.81526e-05
1.81427e-05
1.81407e-05
1.82851e-05
1.86364e-05
1.90528e-05
1.95418e-05
2.0118e-05
2.08023e-05
2.16222e-05
2.25694e-05
2.36208e-05
2.48882e-05
2.63234e-05
2.7956e-05
2.9875e-05
3.20697e-05
3.45104e-05
3.71301e-05
3.98155e-05
4.24592e-05
4.49264e-05
4.71306e-05
4.90682e-05
5.07336e-05
5.21376e-05
5.33188e-05
5.43225e-05
5.51658e-05
5.58835e-05
5.65047e-05
5.704e-05
5.74989e-05
5.78927e-05
5.82348e-05
5.85167e-05
5.87338e-05
5.88453e-05
5.87687e-05
5.8463e-05
5.77967e-05
5.63954e-05
5.33156e-05
4.74141e-05
3.86455e-05
2.78685e-05
2.12048e-05
1.89178e-05
1.8329e-05
1.81838e-05
1.81497e-05
1.81422e-05
1.81406e-05
1.8246e-05
1.84977e-05
1.87937e-05
1.91382e-05
1.95374e-05
2.00005e-05
2.05392e-05
2.11683e-05
2.19055e-05
2.27131e-05
2.35571e-05
2.45439e-05
2.56986e-05
2.7004e-05
2.84902e-05
3.01938e-05
3.20905e-05
3.41504e-05
3.63499e-05
3.85946e-05
4.07695e-05
4.27834e-05
4.45994e-05
4.62099e-05
4.76406e-05
4.89129e-05
5.00375e-05
5.10367e-05
5.19259e-05
5.2703e-05
5.33872e-05
5.39856e-05
5.44911e-05
5.48899e-05
5.5119e-05
5.50854e-05
5.47439e-05
5.40012e-05
5.23245e-05
4.8548e-05
4.22528e-05
3.33002e-05
2.44814e-05
2.00336e-05
1.86431e-05
1.8267e-05
1.81703e-05
1.81469e-05
1.81416e-05
1.81405e-05
1.82176e-05
1.83996e-05
1.86127e-05
1.88597e-05
1.91441e-05
1.94708e-05
1.98456e-05
2.02735e-05
2.0749e-05
2.12912e-05
2.19122e-05
2.26264e-05
2.33593e-05
2.41888e-05
2.51516e-05
2.6228e-05
2.74178e-05
2.87712e-05
3.02978e-05
3.19736e-05
3.376e-05
3.55736e-05
3.73432e-05
3.90396e-05
4.06406e-05
4.21294e-05
4.35137e-05
4.47911e-05
4.59443e-05
4.69924e-05
4.79403e-05
4.87716e-05
4.94819e-05
5.00247e-05
5.03433e-05
5.03138e-05
4.99183e-05
4.8962e-05
4.67394e-05
4.23236e-05
3.57463e-05
2.75584e-05
2.16946e-05
1.92005e-05
1.84354e-05
1.82173e-05
1.8159e-05
1.81445e-05
1.81411e-05
1.81404e-05
1.8196e-05
1.83268e-05
1.84799e-05
1.86575e-05
1.88622e-05
1.90954e-05
1.93569e-05
1.96519e-05
1.99846e-05
2.03603e-05
2.07857e-05
2.12696e-05
2.18237e-05
2.24626e-05
2.31312e-05
2.38207e-05
2.46278e-05
2.55673e-05
2.66438e-05
2.78457e-05
2.91826e-05
3.06189e-05
3.21004e-05
3.35889e-05
3.50542e-05
3.64787e-05
3.78375e-05
3.91229e-05
4.03166e-05
4.14144e-05
4.24023e-05
4.32637e-05
4.39679e-05
4.44693e-05
4.46725e-05
4.44887e-05
4.39046e-05
4.2454e-05
3.9461e-05
3.47148e-05
2.85084e-05
2.29925e-05
1.98296e-05
1.86709e-05
1.82945e-05
1.81818e-05
1.81507e-05
1.81427e-05
1.81407e-05
1.81403e-05
1.8179e-05
1.82701e-05
1.83772e-05
1.8502e-05
1.86457e-05
1.88101e-05
1.89966e-05
1.92071e-05
1.9444e-05
1.97105e-05
2.00106e-05
2.03502e-05
2.07306e-05
2.11397e-05
2.16084e-05
2.21515e-05
2.27858e-05
2.34722e-05
2.42439e-05
2.51158e-05
2.60984e-05
2.71893e-05
2.83492e-05
2.95402e-05
3.0739e-05
3.19261e-05
3.30825e-05
3.41893e-05
3.52311e-05
3.61808e-05
3.69804e-05
3.76362e-05
3.81061e-05
3.8329e-05
3.82063e-05
3.77444e-05
3.6615e-05
3.44525e-05
3.11989e-05
2.70236e-05
2.29853e-05
2.01249e-05
1.88557e-05
1.83745e-05
1.82105e-05
1.81597e-05
1.81453e-05
1.81414e-05
1.81405e-05
1.81403e-05
1.81651e-05
1.82247e-05
1.82963e-05
1.83814e-05
1.8481e-05
1.8596e-05
1.87273e-05
1.88761e-05
1.90437e-05
1.92319e-05
1.94433e-05
1.9666e-05
1.99146e-05
2.0195e-05
2.05159e-05
2.08884e-05
2.13267e-05
2.18311e-05
2.24129e-05
2.30865e-05
2.38056e-05
2.46176e-05
2.54904e-05
2.63896e-05
2.72935e-05
2.81809e-05
2.90295e-05
2.98204e-05
3.05351e-05
3.11534e-05
3.16471e-05
3.19493e-05
3.20122e-05
3.18533e-05
3.13786e-05
3.03801e-05
2.88273e-05
2.67318e-05
2.42122e-05
2.17133e-05
1.98475e-05
1.88485e-05
1.84026e-05
1.82281e-05
1.81672e-05
1.81479e-05
1.81422e-05
1.81407e-05
1.81403e-05
1.81402e-05
1.81538e-05
1.8189e-05
1.82337e-05
1.82888e-05
1.83548e-05
1.84323e-05
1.85216e-05
1.86232e-05
1.87348e-05
1.88567e-05
1.89912e-05
1.91397e-05
1.93049e-05
1.94906e-05
1.97029e-05
1.9944e-05
2.02164e-05
2.05412e-05
2.09303e-05
2.139e-05
2.19191e-05
2.25115e-05
2.31375e-05
2.37533e-05
2.4361e-05
2.49384e-05
2.54654e-05
2.59219e-05
2.62884e-05
2.65436e-05
2.6657e-05
2.66321e-05
2.64175e-05
2.59183e-05
2.51629e-05
2.41563e-05
2.29407e-05
2.1484e-05
2.01855e-05
1.92299e-05
1.86487e-05
1.83503e-05
1.82183e-05
1.81666e-05
1.81484e-05
1.81426e-05
1.81408e-05
1.81404e-05
1.81402e-05
1.81402e-05
1.81448e-05
1.81608e-05
1.81853e-05
1.82171e-05
1.82558e-05
1.83015e-05
1.83546e-05
1.84149e-05
1.84824e-05
1.85574e-05
1.864e-05
1.87312e-05
1.88319e-05
1.8938e-05
1.90564e-05
1.91933e-05
1.93548e-05
1.95477e-05
1.97795e-05
2.00535e-05
2.03662e-05
2.07106e-05
2.10752e-05
2.14424e-05
2.17943e-05
2.21126e-05
2.23782e-05
2.25721e-05
2.26754e-05
2.26883e-05
2.26057e-05
2.23579e-05
2.19703e-05
2.14471e-05
2.08272e-05
2.01738e-05
1.95529e-05
1.9028e-05
1.86401e-05
1.83906e-05
1.82521e-05
1.81852e-05
1.81567e-05
1.81457e-05
1.81419e-05
1.81407e-05
1.81403e-05
1.81402e-05
1.81402e-05
1.81402e-05
1.81404e-05
1.8144e-05
1.8151e-05
1.81617e-05
1.81761e-05
1.8194e-05
1.82157e-05
1.82413e-05
1.82705e-05
1.83028e-05
1.83369e-05
1.83738e-05
1.84141e-05
1.84581e-05
1.85069e-05
1.85619e-05
1.8626e-05
1.87012e-05
1.8789e-05
1.88892e-05
1.8999e-05
1.9114e-05
1.92288e-05
1.93359e-05
1.94277e-05
1.94969e-05
1.95363e-05
1.95397e-05
1.95035e-05
1.94286e-05
1.93137e-05
1.91636e-05
1.89914e-05
1.88117e-05
1.86395e-05
1.84878e-05
1.83651e-05
1.82746e-05
1.82145e-05
1.81783e-05
1.81563e-05
1.81452e-05
1.81419e-05
1.81409e-05
1.81404e-05
1.81402e-05
1.81402e-05
1.81402e-05
1.81402e-05
1.81402e-05
)
;

boundaryField
{
    AXIS
    {
        type            empty;
    }
    OUTLET
    {
        type            calculated;
        value           nonuniform List<scalar> 
25
(
1.81412e-05
1.81412e-05
1.81412e-05
1.81412e-05
1.81412e-05
1.81411e-05
1.81411e-05
1.81411e-05
1.8141e-05
1.8141e-05
1.8141e-05
1.81409e-05
1.81409e-05
1.81408e-05
1.81407e-05
1.81407e-05
1.81406e-05
1.81405e-05
1.81404e-05
1.81403e-05
1.81403e-05
1.81402e-05
1.81402e-05
1.81402e-05
1.81402e-05
)
;
    }
    COFLOW
    {
        type            calculated;
        value           uniform 1.81402e-05;
    }
    PILOT
    {
        type            calculated;
        value           uniform 7.09187e-05;
    }
    FUEL
    {
        type            calculated;
        value           uniform 1.81402e-05;
    }
    WALL
    {
        type            calculated;
        value           nonuniform List<scalar> 
50
(
1.81404e-05
1.8144e-05
1.8151e-05
1.81617e-05
1.81761e-05
1.8194e-05
1.82157e-05
1.82413e-05
1.82705e-05
1.83028e-05
1.83369e-05
1.83738e-05
1.84141e-05
1.84581e-05
1.85069e-05
1.85619e-05
1.8626e-05
1.87012e-05
1.8789e-05
1.88892e-05
1.8999e-05
1.9114e-05
1.92288e-05
1.93359e-05
1.94277e-05
1.94969e-05
1.95363e-05
1.95397e-05
1.95035e-05
1.94286e-05
1.93137e-05
1.91636e-05
1.89914e-05
1.88117e-05
1.86395e-05
1.84878e-05
1.83651e-05
1.82746e-05
1.82145e-05
1.81783e-05
1.81563e-05
1.81452e-05
1.81419e-05
1.81409e-05
1.81404e-05
1.81402e-05
1.81402e-05
1.81402e-05
1.81402e-05
1.81402e-05
)
;
    }
    front
    {
        type            wedge;
    }
    back
    {
        type            wedge;
    }
}


// ************************************************************************* //
