/*--------------------------------*- C++ -*----------------------------------*\
| =========                 |                                                 |
| \\      /  F ield         | OpenFOAM: The Open Source CFD Toolbox           |
|  \\    /   O peration     | Version:  2.4.x                                 |
|   \\  /    A nd           | Web:      www.OpenFOAM.org                      |
|    \\/     M anipulation  |                                                 |
\*---------------------------------------------------------------------------*/
FoamFile
{
    version     2.0;
    format      ascii;
    class       volVectorField;
    location    "0.07";
    object      U;
}
// * * * * * * * * * * * * * * * * * * * * * * * * * * * * * * * * * * * * * //

dimensions      [0 1 -1 0 0 0 0];

internalField   nonuniform List<vector> 
1250
(
(10.4548 -0.0355162 -7.75133e-15)
(11.9041 0.0624411 -4.36014e-14)
(12.6133 0.12874 -8.54313e-14)
(12.9539 0.157126 -1.70479e-13)
(13.0642 0.147706 -1.36265e-13)
(13.0249 0.166732 2.20395e-14)
(12.9171 0.112146 1.40425e-13)
(12.7881 0.144594 1.08356e-13)
(12.6392 0.105214 1.82524e-13)
(12.5329 0.14068 2.70252e-14)
(12.381 0.135212 1.38785e-13)
(12.2282 0.086411 2.55644e-13)
(12.1006 0.115141 4.11876e-13)
(11.9477 0.0764366 2.65025e-13)
(11.8302 0.0984457 5.19259e-13)
(11.6971 0.0662624 1.70334e-12)
(11.5742 0.0833155 3.41263e-13)
(11.439 0.0538698 1.70426e-12)
(11.3233 0.0696347 -3.89537e-12)
(11.2024 0.0674205 2.81571e-11)
(11.0807 0.0449871 8.75769e-12)
(10.984 0.0577397 2.60802e-12)
(10.8768 0.0400497 2.47042e-12)
(10.765 0.0516288 9.59365e-13)
(10.6409 0.0358808 2.36056e-12)
(10.5445 0.0461364 2.05557e-12)
(10.4479 0.0425644 1.9476e-12)
(10.3539 0.0357919 1.78379e-12)
(10.2608 0.0354294 1.67919e-12)
(10.168 0.0318689 6.80862e-13)
(10.0764 0.0299388 1.57069e-12)
(9.98147 0.0283275 2.49973e-12)
(9.88394 0.025889 1.15156e-12)
(9.77806 0.0246121 1.0145e-12)
(9.6489 0.0243643 1.72297e-13)
(9.50908 0.0260742 7.25167e-12)
(9.32999 0.0276228 -3.56315e-11)
(9.07939 0.0346137 -1.4587e-11)
(8.71548 0.0444551 5.90741e-11)
(8.20469 0.0635533 1.42362e-11)
(7.05905 0.0809001 4.68293e-12)
(5.3646 0.0594834 1.6901e-12)
(3.59085 0.0314457 1.46011e-12)
(2.44094 0.0213422 -1.806e-11)
(2.04892 0.012019 -3.46264e-12)
(1.8366 0.00442254 -1.66715e-12)
(1.7471 0.00296863 -1.98692e-14)
(1.70827 0.00175296 7.10022e-13)
(1.68853 0.00120165 -2.7677e-12)
(1.66964 0.000553956 2.30229e-11)
(10.5668 -0.0966225 -2.13601e-14)
(12.0696 0.192869 -1.29012e-13)
(12.6803 0.356218 -2.48768e-13)
(12.9563 0.427703 -4.76225e-13)
(13.0216 0.462546 -2.82978e-13)
(12.9612 0.436671 1.21258e-13)
(12.8319 0.401152 3.32086e-13)
(12.6853 0.378737 3.14082e-13)
(12.5547 0.388655 3.95946e-13)
(12.4361 0.368894 4.55275e-14)
(12.2951 0.343536 4.46793e-13)
(12.1404 0.31174 5.98911e-13)
(12.0069 0.295197 1.20726e-12)
(11.8655 0.277604 5.41605e-13)
(11.7464 0.252646 1.67495e-12)
(11.6248 0.240932 3.67283e-12)
(11.5006 0.213961 8.01207e-13)
(11.3693 0.194945 3.20386e-12)
(11.2492 0.180239 -8.41992e-12)
(11.1387 0.169067 3.26689e-11)
(11.0266 0.165023 1.31439e-11)
(10.9265 0.148587 6.0297e-12)
(10.8237 0.138719 5.04026e-12)
(10.7126 0.129264 2.66313e-12)
(10.5929 0.132659 5.09748e-12)
(10.4918 0.119813 5.77157e-12)
(10.3995 0.1108 5.21806e-12)
(10.3073 0.105876 3.69994e-12)
(10.216 0.0972231 3.98483e-12)
(10.125 0.091039 1.44326e-12)
(10.0349 0.0853753 3.77066e-12)
(9.94161 0.0793379 5.92555e-12)
(9.84575 0.0741858 2.34274e-12)
(9.74194 0.0719662 2.03695e-12)
(9.61473 0.0700149 8.47519e-13)
(9.47733 0.072382 1.43049e-11)
(9.30099 0.0775617 -2.03127e-11)
(9.05428 0.0879266 -3.33428e-11)
(8.69718 0.112433 1.04744e-10)
(8.19596 0.16073 3.58276e-11)
(7.07234 0.205154 1.28454e-11)
(5.40362 0.16213 4.7281e-12)
(3.6208 0.0835538 3.94553e-12)
(2.45152 0.0550396 -2.34587e-11)
(2.05644 0.0327426 -9.18978e-12)
(1.84044 0.0124448 -4.21609e-12)
(1.74964 0.00770043 5.14899e-14)
(1.71049 0.00448094 1.98784e-12)
(1.69052 0.0030704 -7.56142e-12)
(1.6714 0.00160329 2.19272e-11)
(10.7112 -0.154505 -3.26219e-14)
(12.2891 0.437885 -2.56497e-13)
(12.7436 0.655866 -4.71323e-13)
(12.89 0.726383 -9.2112e-13)
(12.8674 0.720222 -4.49968e-13)
(12.7625 0.685857 5.97011e-13)
(12.5979 0.656519 7.94691e-13)
(12.459 0.629853 5.71709e-13)
(12.334 0.609812 7.51491e-13)
(12.2146 0.580099 -6.46899e-14)
(12.0799 0.540207 1.10092e-12)
(11.9339 0.49387 1.44285e-12)
(11.8011 0.45941 2.28572e-12)
(11.6757 0.422609 9.2393e-13)
(11.5628 0.392885 4.01864e-12)
(11.455 0.363168 7.10824e-12)
(11.337 0.331444 3.95504e-13)
(11.2125 0.302003 3.96062e-12)
(11.0989 0.280507 -7.9693e-12)
(10.9935 0.263823 2.51614e-11)
(10.8913 0.245685 1.10846e-11)
(10.7966 0.230916 5.83314e-12)
(10.703 0.21242 8.37188e-12)
(10.5936 0.19955 4.45251e-12)
(10.4777 0.194797 1.02594e-11)
(10.3801 0.18697 9.76295e-12)
(10.2901 0.172587 8.3507e-12)
(10.2022 0.159964 6.23456e-12)
(10.1152 0.149112 6.38684e-12)
(10.0275 0.138643 2.12595e-12)
(9.94095 0.12997 7.91035e-12)
(9.85064 0.121632 1.0528e-11)
(9.75786 0.11313 2.89912e-12)
(9.65737 0.108808 3.29555e-12)
(9.53348 0.107834 3.67886e-12)
(9.39974 0.111048 2.13593e-11)
(9.22658 0.119742 -1.085e-11)
(8.98436 0.137872 -3.55861e-11)
(8.6345 0.17537 9.37835e-11)
(8.13968 0.249098 4.55169e-11)
(7.03248 0.316924 1.87834e-11)
(5.38239 0.247683 7.34753e-12)
(3.62266 0.133239 5.96214e-12)
(2.45246 0.0871853 -1.54761e-11)
(2.05671 0.0520009 -1.32638e-11)
(1.84193 0.0199199 -6.21498e-12)
(1.75111 0.0123684 7.11755e-13)
(1.71178 0.00718283 3.12825e-12)
(1.69179 0.00489843 -1.22529e-11)
(1.67273 0.0024626 2.00212e-11)
(10.6625 0.116634 -4.52385e-14)
(12.5154 0.917688 -5.27354e-13)
(12.6703 1.0946 -8.86628e-13)
(12.5978 1.08909 -1.90854e-12)
(12.4674 1.05868 1.51112e-13)
(12.3153 1.00217 2.4115e-12)
(12.1663 0.952081 1.37783e-12)
(12.0374 0.905217 7.77092e-13)
(11.9254 0.853652 1.11969e-12)
(11.8246 0.797843 -4.90364e-13)
(11.7086 0.737116 2.96607e-12)
(11.5856 0.673896 3.05785e-12)
(11.4721 0.625206 3.72552e-12)
(11.3681 0.57801 1.44082e-12)
(11.2727 0.535263 9.32521e-12)
(11.1818 0.494714 1.04359e-11)
(11.0766 0.450881 -3.68303e-12)
(10.9668 0.412147 3.52221e-12)
(10.8663 0.383766 -5.07368e-12)
(10.7721 0.359871 1.2233e-11)
(10.6809 0.337351 2.91252e-13)
(10.595 0.31516 3.74574e-12)
(10.5106 0.290778 1.14191e-11)
(10.4105 0.269425 6.92757e-12)
(10.3044 0.260859 1.69265e-11)
(10.2092 0.253018 1.28653e-11)
(10.1238 0.237905 1.04912e-11)
(10.0423 0.220232 7.97139e-12)
(9.9613 0.20495 7.80707e-12)
(9.87914 0.190958 2.60837e-12)
(9.79755 0.178768 1.41457e-11)
(9.71181 0.167615 1.44147e-11)
(9.62377 0.15665 8.82735e-13)
(9.5277 0.150326 5.07929e-12)
(9.40861 0.148005 9.29089e-12)
(9.28005 0.152949 2.68921e-11)
(9.11011 0.165234 5.0431e-12)
(8.87392 0.189672 -2.6037e-11)
(8.53275 0.24021 7.84264e-11)
(8.04097 0.340557 4.73341e-11)
(6.94394 0.429917 2.20693e-11)
(5.32854 0.334886 9.28153e-12)
(3.59626 0.182148 7.33398e-12)
(2.44217 0.120868 -4.77011e-12)
(2.05413 0.0724785 -1.68025e-11)
(1.84102 0.0279317 -6.87988e-12)
(1.75184 0.0173171 2.23913e-12)
(1.71254 0.010082 3.92239e-12)
(1.69273 0.00684759 -1.73538e-11)
(1.6738 0.00348194 1.24224e-11)
(10.0061 0.754165 -7.6311e-14)
(12.1696 1.7913 -1.54037e-12)
(12.002 1.66922 -1.44895e-12)
(11.6945 1.51737 -1.10723e-12)
(11.5913 1.43086 -9.56945e-13)
(11.4831 1.32583 4.71869e-13)
(11.3988 1.22533 8.81581e-13)
(11.3374 1.13802 6.49992e-13)
(11.2895 1.06198 1.41676e-12)
(11.2398 0.985418 -1.28292e-12)
(11.1676 0.904066 8.8521e-12)
(11.0854 0.828123 5.66819e-12)
(11.0087 0.766146 5.27842e-12)
(10.9365 0.707528 3.32186e-12)
(10.8698 0.65653 5.95479e-12)
(10.804 0.606434 9.52985e-12)
(10.7205 0.553134 2.7482e-12)
(10.6321 0.508942 5.30861e-12)
(10.5509 0.474576 -2.77896e-12)
(10.4728 0.444861 9.19503e-12)
(10.3963 0.416419 5.719e-12)
(10.3232 0.389029 7.05756e-12)
(10.2508 0.358515 6.9998e-13)
(10.1638 0.331472 1.06492e-11)
(10.0698 0.315574 1.33711e-11)
(9.98307 0.305725 1.23404e-11)
(9.90335 0.294134 1.10279e-11)
(9.82911 0.274884 8.68826e-12)
(9.75654 0.255109 7.90425e-12)
(9.68187 0.237601 4.41491e-12)
(9.60711 0.222538 6.39426e-12)
(9.52776 0.208815 1.47887e-11)
(9.44593 0.19619 1.79946e-11)
(9.3554 0.188564 1.03863e-11)
(9.2428 0.184706 5.77798e-12)
(9.12067 0.19118 3.21216e-11)
(8.95466 0.207211 4.15807e-12)
(8.72609 0.238404 -2.98783e-11)
(8.39405 0.300198 6.66238e-11)
(7.90179 0.426201 4.5163e-11)
(6.81358 0.530188 2.3195e-11)
(5.24057 0.416561 1.04864e-11)
(3.54539 0.226052 8.14487e-12)
(2.42518 0.151997 3.04525e-13)
(2.04798 0.0912638 -9.07221e-12)
(1.83889 0.0355175 -5.75512e-12)
(1.75213 0.0220845 -6.04803e-12)
(1.7131 0.0128978 3.98381e-12)
(1.69363 0.00872657 -2.36166e-11)
(1.67495 0.00442391 1.29765e-12)
(7.5881 0.410042 -3.2517e-13)
(8.47398 2.30842 -3.66253e-12)
(9.42468 1.87778 -2.30252e-12)
(9.72062 1.76274 -2.06229e-12)
(10.0027 1.61242 -1.58561e-12)
(10.1554 1.48524 -2.54956e-13)
(10.2695 1.3799 6.27718e-13)
(10.353 1.28549 6.67928e-13)
(10.4179 1.19954 1.68186e-12)
(10.4519 1.10914 -1.29357e-12)
(10.4492 1.01699 9.90757e-12)
(10.43 0.937218 7.01411e-12)
(10.4075 0.872421 6.5089e-12)
(10.383 0.813343 4.90183e-12)
(10.357 0.757179 5.92258e-12)
(10.3237 0.698144 9.11108e-12)
(10.2697 0.63746 4.62856e-12)
(10.2098 0.589875 6.3788e-12)
(10.1538 0.550866 -2.10983e-12)
(10.0973 0.516594 1.31526e-11)
(10.0398 0.483605 9.02775e-12)
(9.98324 0.45197 8.36962e-12)
(9.92632 0.41699 4.91515e-12)
(9.85562 0.384981 6.66183e-12)
(9.77655 0.364492 1.04411e-11)
(9.70203 0.349316 1.11571e-11)
(9.63226 0.337654 1.07839e-11)
(9.56612 0.321884 8.33551e-12)
(9.50291 0.300635 6.96817e-12)
(9.43817 0.279575 5.12219e-12)
(9.37205 0.261828 2.24259e-12)
(9.30084 0.245798 2.10311e-11)
(9.22686 0.232035 1.61728e-11)
(9.14295 0.224279 1.11332e-11)
(9.03854 0.219426 6.81573e-12)
(8.92371 0.226756 2.29434e-11)
(8.76255 0.245901 1.46873e-12)
(8.54317 0.283759 -2.7776e-11)
(8.21995 0.356516 5.42322e-11)
(7.72392 0.506245 4.08315e-11)
(6.6473 0.618498 2.27735e-11)
(5.12265 0.491813 1.10245e-11)
(3.47269 0.265186 8.54731e-12)
(2.40113 0.182229 2.81626e-12)
(2.0389 0.108706 -4.434e-12)
(1.83556 0.0429055 -4.66823e-12)
(1.75201 0.026753 -3.36715e-12)
(1.71355 0.0156841 4.16937e-12)
(1.69455 0.0105707 -2.3624e-11)
(1.67618 0.00536407 -4.51852e-12)
(4.00938 -0.650775 -1.58935e-12)
(5.19094 0.378078 -3.79351e-12)
(6.56883 1.00194 -2.69786e-12)
(7.44164 1.36478 -3.39592e-12)
(8.09287 1.42454 -1.53327e-12)
(8.53813 1.41305 4.07298e-13)
(8.88669 1.36841 1.26285e-12)
(9.14578 1.30619 1.21098e-12)
(9.35007 1.23388 2.10876e-12)
(9.49283 1.14791 -6.05046e-13)
(9.58352 1.06244 8.89842e-12)
(9.64581 0.990554 7.81705e-12)
(9.69193 0.932001 7.69125e-12)
(9.72185 0.877375 5.91997e-12)
(9.74124 0.824372 8.03117e-12)
(9.74754 0.763923 9.79887e-12)
(9.73111 0.698447 4.0576e-12)
(9.70649 0.649489 6.00291e-12)
(9.68069 0.608223 -1.67848e-12)
(9.65031 0.570984 1.52952e-11)
(9.61588 0.535052 8.75836e-12)
(9.57971 0.501231 7.59856e-12)
(9.54156 0.463758 8.29062e-12)
(9.48994 0.428327 5.97861e-12)
(9.42818 0.404229 1.02423e-11)
(9.36874 0.385252 1.09054e-11)
(9.3125 0.370353 1.02028e-11)
(9.25753 0.356379 6.63664e-12)
(9.20444 0.337893 5.19641e-12)
(9.15064 0.315267 4.24982e-12)
(9.09516 0.295143 2.31576e-12)
(9.03403 0.277291 2.19227e-11)
(8.96942 0.262725 1.22395e-11)
(8.89341 0.255175 9.09603e-12)
(8.79845 0.250892 9.80195e-12)
(8.69121 0.259959 1.53221e-11)
(8.53635 0.281908 1.60544e-12)
(8.32768 0.323786 -2.11689e-11)
(8.01253 0.407503 4.7151e-11)
(7.50795 0.580425 3.54714e-11)
(6.45143 0.696609 2.13458e-11)
(4.97929 0.558848 1.10032e-11)
(3.38332 0.299183 8.64548e-12)
(2.36629 0.208664 3.61884e-12)
(2.02651 0.12401 -2.0084e-12)
(1.83114 0.0498703 -3.74973e-12)
(1.75161 0.0312054 -5.33815e-13)
(1.71391 0.0183821 4.05311e-12)
(1.69551 0.0123477 -1.96705e-11)
(1.67751 0.00627268 -6.87689e-12)
(2.80946 -2.40418 -4.80577e-12)
(2.8199 -0.867178 -3.23083e-12)
(4.13596 0.11811 -2.58516e-12)
(5.26242 0.742913 -5.80001e-12)
(6.17566 1.02093 5.46486e-13)
(6.85496 1.1577 3.24408e-12)
(7.40563 1.20467 2.99983e-12)
(7.8317 1.20468 2.24713e-12)
(8.17239 1.1711 2.75749e-12)
(8.42619 1.10964 6.70908e-13)
(8.61477 1.04612 6.38766e-12)
(8.76235 0.989265 8.92714e-12)
(8.88084 0.938758 9.04293e-12)
(8.9739 0.888797 6.57102e-12)
(9.04626 0.843525 1.27301e-11)
(9.09365 0.792399 1.02088e-11)
(9.11745 0.733023 -1.08393e-13)
(9.13311 0.684612 4.59186e-12)
(9.14126 0.643802 -5.82169e-13)
(9.14042 0.606377 1.09761e-11)
(9.13256 0.570142 3.41528e-12)
(9.11976 0.535972 6.11238e-12)
(9.10271 0.497948 1.23507e-11)
(9.07228 0.460629 5.99688e-12)
(9.03022 0.433564 1.31608e-11)
(8.98799 0.412195 1.13818e-11)
(8.94762 0.394467 8.55992e-12)
(8.90669 0.379085 2.86217e-12)
(8.86571 0.363536 2.76598e-12)
(8.82361 0.343124 2.63126e-12)
(8.78006 0.321565 7.24793e-12)
(8.73063 0.302537 1.3968e-11)
(8.67665 0.287674 5.22807e-12)
(8.61005 0.280461 6.58569e-12)
(8.52558 0.277257 1.37997e-11)
(8.42623 0.28884 6.55206e-12)
(8.27879 0.313069 3.93849e-12)
(8.08178 0.358303 -1.07202e-11)
(7.77419 0.45287 3.83042e-11)
(7.25656 0.646794 2.9353e-11)
(6.2325 0.762796 1.93304e-11)
(4.81305 0.612782 1.05383e-11)
(3.27927 0.328536 8.48659e-12)
(2.3249 0.231498 3.12633e-12)
(2.01196 0.137034 -9.27782e-13)
(1.82592 0.0563284 -2.96005e-12)
(1.75098 0.0354059 2.74707e-12)
(1.71422 0.0209817 3.47108e-12)
(1.69651 0.0140525 -1.31675e-11)
(1.67893 0.00715255 -7.19979e-12)
(2.66912 -1.45687 -4.10192e-12)
(1.607 -1.13711 -2.11785e-12)
(2.40124 -0.577083 -1.9761e-12)
(3.50611 0.0879544 -3.50905e-12)
(4.49626 0.522 1.57969e-12)
(5.29884 0.793472 4.10992e-12)
(5.97385 0.938146 5.19787e-12)
(6.52151 1.00832 3.18094e-12)
(6.96899 1.02256 3.57528e-12)
(7.31897 0.998381 1.90898e-12)
(7.59753 0.967496 9.23432e-12)
(7.82476 0.934013 1.37375e-11)
(8.01237 0.900358 1.05111e-11)
(8.1665 0.863286 7.60139e-12)
(8.29249 0.826948 1.0919e-11)
(8.38441 0.787154 5.57666e-12)
(8.44823 0.74013 2.78225e-12)
(8.50394 0.697453 4.86896e-12)
(8.54845 0.659535 7.53746e-13)
(8.5791 0.624278 1.11686e-11)
(8.59945 0.58956 7.22647e-12)
(8.61167 0.556188 8.01696e-12)
(8.61745 0.519233 4.50624e-12)
(8.60956 0.481105 5.09144e-12)
(8.58895 0.451629 8.97908e-12)
(8.56588 0.428822 1.05015e-11)
(8.54286 0.409501 3.40993e-12)
(8.51801 0.392501 -3.69875e-12)
(8.49151 0.377262 5.12184e-13)
(8.46202 0.360401 2.33127e-12)
(8.43098 0.340787 2.03234e-12)
(8.39471 0.320723 8.72832e-12)
(8.35235 0.306074 5.60066e-12)
(8.29635 0.299677 7.14597e-12)
(8.22319 0.297989 1.02588e-11)
(8.13196 0.311816 6.57326e-12)
(7.99355 0.338148 3.10279e-12)
(7.80866 0.387922 -9.02329e-12)
(7.50655 0.493422 2.33096e-11)
(6.9788 0.70256 2.30835e-11)
(5.9937 0.813341 1.704e-11)
(4.63046 0.65583 9.73516e-12)
(3.16544 0.349675 8.06697e-12)
(2.28168 0.250633 1.86544e-12)
(1.99647 0.147305 -6.17746e-13)
(1.81993 0.0622619 -2.09728e-12)
(1.75021 0.0393081 8.05623e-13)
(1.71448 0.0234584 2.30834e-12)
(1.69756 0.0156717 -9.35217e-12)
(1.68046 0.0079963 -6.73185e-12)
(2.1452 -1.04635 -3.90282e-13)
(1.22845 -0.977942 -8.13631e-13)
(1.52778 -0.816166 -1.12816e-12)
(2.27865 -0.363151 -1.98634e-12)
(3.17231 0.0757098 -5.36788e-14)
(3.97139 0.409344 1.43314e-12)
(4.68502 0.624379 2.40935e-12)
(5.29335 0.758695 3.12367e-12)
(5.80649 0.82509 4.63827e-12)
(6.22784 0.844427 3.75319e-12)
(6.57818 0.848306 6.60828e-12)
(6.87093 0.842195 9.54867e-12)
(7.11794 0.829294 9.65724e-12)
(7.32703 0.808111 7.69795e-12)
(7.50163 0.782791 9.54112e-12)
(7.634 0.751096 7.21957e-12)
(7.73803 0.717233 4.90902e-12)
(7.8336 0.68672 5.54538e-12)
(7.91392 0.654559 2.91256e-12)
(7.97654 0.623047 6.98874e-12)
(8.02598 0.590741 8.62231e-12)
(8.06439 0.55912 9.50917e-12)
(8.09393 0.524454 7.26556e-12)
(8.10944 0.487511 5.91884e-12)
(8.11177 0.457633 7.61633e-12)
(8.10937 0.434604 8.95436e-12)
(8.10496 0.414842 4.76544e-12)
(8.09711 0.397467 -2.43603e-12)
(8.0864 0.381478 1.05274e-12)
(8.07148 0.36681 3.05104e-12)
(8.0533 0.350683 -5.33134e-13)
(8.03048 0.33156 6.17946e-12)
(8.0006 0.317571 5.79581e-12)
(7.95638 0.312326 9.26834e-12)
(7.89492 0.312785 7.11254e-12)
(7.81217 0.329199 3.7879e-12)
(7.68396 0.357736 7.798e-12)
(7.51132 0.41227 -6.02888e-12)
(7.21267 0.527861 1.98924e-11)
(6.68233 0.746463 1.79987e-11)
(5.73973 0.848842 1.47706e-11)
(4.43926 0.691908 8.67904e-12)
(3.04716 0.36687 7.39451e-12)
(2.2392 0.266872 3.42566e-12)
(1.97929 0.154418 -5.4066e-13)
(1.81358 0.0676709 -1.26213e-12)
(1.74925 0.0428769 -2.51023e-13)
(1.71474 0.0257916 9.65763e-13)
(1.69867 0.0171951 -7.44897e-12)
(1.68211 0.00879997 -6.00397e-12)
(1.08349 -0.0798967 -2.77013e-14)
(1.29478 -0.426381 -5.41388e-14)
(1.2543 -0.601428 -3.93757e-13)
(1.58215 -0.47812 -9.7514e-13)
(2.20673 -0.210363 -8.17672e-13)
(2.88869 0.0863889 -1.01487e-12)
(3.55935 0.318188 -2.31053e-13)
(4.16935 0.488714 3.75554e-12)
(4.70315 0.596076 7.02222e-12)
(5.16189 0.66107 5.9678e-12)
(5.55841 0.700548 6.33382e-12)
(5.90047 0.720119 7.33412e-12)
(6.19386 0.727095 8.39622e-12)
(6.44768 0.721924 6.94739e-12)
(6.66289 0.701776 8.73821e-12)
(6.83556 0.674593 7.25479e-12)
(6.98154 0.658236 6.19754e-12)
(7.11586 0.644026 6.21282e-12)
(7.23077 0.62179 4.8919e-12)
(7.32547 0.597148 4.73246e-12)
(7.40477 0.569888 1.16793e-11)
(7.47071 0.542118 1.10362e-11)
(7.52568 0.511644 8.45734e-12)
(7.56609 0.478894 6.92145e-12)
(7.59256 0.451346 7.77311e-12)
(7.61204 0.429355 7.34101e-12)
(7.62733 0.410164 1.20343e-11)
(7.63754 0.393119 4.83989e-12)
(7.64376 0.377731 4.41186e-12)
(7.64437 0.363846 4.00335e-12)
(7.64048 0.350382 6.04522e-12)
(7.632 0.334752 6.67238e-12)
(7.61479 0.322197 6.95535e-12)
(7.58364 0.318593 1.2402e-11)
(7.53451 0.321698 2.39609e-12)
(7.46111 0.340693 5.014e-13)
(7.3447 0.371652 1.22093e-11)
(7.1836 0.431924 -3.30744e-12)
(6.88718 0.556552 9.39623e-12)
(6.36383 0.778992 1.30105e-11)
(5.46602 0.871309 1.2389e-11)
(4.2376 0.72248 7.38245e-12)
(2.92828 0.377931 6.58843e-12)
(2.19405 0.28157 4.69308e-12)
(1.96019 0.159098 -1.12326e-12)
(1.80683 0.0727053 -4.22974e-13)
(1.74816 0.0461964 -9.05265e-13)
(1.71507 0.0280305 -4.87091e-13)
(1.69992 0.018658 -6.7622e-12)
(1.68398 0.00958237 -5.16383e-12)
(0.96446 -0.0197127 4.48635e-14)
(1.17433 -0.182632 2.80879e-13)
(1.15099 -0.269307 6.89197e-15)
(1.26141 -0.302202 -5.13049e-13)
(1.56883 -0.259906 -1.53581e-12)
(2.04445 -0.106758 -4.22255e-12)
(2.59123 0.0703085 -2.95217e-12)
(3.13721 0.22976 7.83058e-12)
(3.6505 0.353619 1.30564e-11)
(4.11737 0.447065 8.20836e-12)
(4.52966 0.512977 6.78742e-12)
(4.8971 0.555244 5.62619e-12)
(5.22081 0.581406 7.42236e-12)
(5.50566 0.593103 5.42212e-12)
(5.75201 0.587182 8.9433e-12)
(5.9647 0.577258 5.91929e-12)
(6.15361 0.576813 7.18069e-12)
(6.32347 0.573149 6.82741e-12)
(6.47066 0.560249 6.4752e-12)
(6.5975 0.544317 4.15796e-12)
(6.7077 0.524851 8.15512e-12)
(6.80271 0.503589 1.16053e-11)
(6.88499 0.479553 7.92855e-12)
(6.9522 0.453532 7.71985e-12)
(7.00438 0.430605 8.75037e-12)
(7.0473 0.411071 7.1903e-12)
(7.08403 0.393572 1.19487e-11)
(7.11409 0.377856 9.41726e-12)
(7.13878 0.36379 8.07169e-12)
(7.1566 0.351155 5.63879e-12)
(7.16895 0.340294 1.51369e-11)
(7.17617 0.328765 7.69676e-12)
(7.17209 0.318763 9.93965e-12)
(7.15586 0.317536 1.58371e-11)
(7.1204 0.324135 1.9246e-12)
(7.05834 0.345705 -1.46641e-12)
(6.95593 0.37948 1.99493e-11)
(6.80501 0.447126 -3.51969e-12)
(6.51014 0.579347 2.0479e-12)
(6.00472 0.800145 8.98968e-12)
(5.15351 0.880888 9.8925e-12)
(4.01007 0.741213 5.75569e-12)
(2.79748 0.39111 5.76926e-12)
(2.14686 0.291366 5.44255e-12)
(1.93902 0.161712 -3.20681e-12)
(1.79899 0.077537 6.22884e-13)
(1.74677 0.0493585 -1.53009e-12)
(1.71542 0.0302649 -2.1818e-12)
(1.70132 0.0201236 -6.93812e-12)
(1.68613 0.0103766 -4.12042e-12)
(0.950316 0.0228538 9.3979e-14)
(1.04015 -0.0568197 6.48032e-13)
(1.06415 -0.0967768 1.34427e-13)
(1.12297 -0.118511 -6.18068e-13)
(1.2517 -0.134019 -3.06893e-12)
(1.49042 -0.10977 -9.8711e-12)
(1.83973 -0.0459259 -4.60307e-12)
(2.25474 0.0479083 7.93946e-12)
(2.68849 0.148603 8.09609e-12)
(3.11272 0.236834 6.6934e-12)
(3.51159 0.310744 5.93485e-12)
(3.88297 0.36793 2.60491e-12)
(4.21876 0.409793 7.7906e-12)
(4.52248 0.437665 2.7206e-12)
(4.79504 0.453772 1.24672e-11)
(5.03553 0.466298 1.73267e-12)
(5.25157 0.47659 9.87262e-12)
(5.44875 0.479669 7.2378e-12)
(5.62586 0.476342 7.58673e-12)
(5.78381 0.470207 2.87958e-12)
(5.92412 0.459687 8.53172e-12)
(6.04811 0.446133 1.37892e-11)
(6.15862 0.429662 4.76936e-12)
(6.25358 0.410655 9.27506e-12)
(6.3321 0.392587 1.06805e-11)
(6.39944 0.376538 7.8752e-12)
(6.45904 0.362065 1.36602e-11)
(6.51054 0.348855 1.28377e-11)
(6.55556 0.337138 1.10391e-11)
(6.59235 0.326593 9.21978e-12)
(6.62274 0.318304 9.56671e-12)
(6.64704 0.311549 5.3062e-12)
(6.65927 0.305727 1.53812e-11)
(6.65625 0.306952 2.06337e-11)
(6.63651 0.317329 1.22748e-11)
(6.58958 0.342399 -3.99315e-13)
(6.50201 0.38026 1.57205e-11)
(6.35853 0.456537 -1.1815e-11)
(6.067 0.595778 -3.31052e-12)
(5.59115 0.806349 6.81822e-12)
(4.78981 0.875171 7.86332e-12)
(3.74641 0.746027 3.62754e-12)
(2.65085 0.40254 5.21604e-12)
(2.09745 0.2955 5.43439e-12)
(1.91472 0.161258 -6.90976e-13)
(1.78978 0.0821339 2.59708e-12)
(1.74474 0.0522747 -2.5965e-12)
(1.71562 0.0324862 -4.37088e-12)
(1.70274 0.0215918 -7.77306e-12)
(1.68852 0.0111824 -2.54852e-12)
(0.930682 0.0201682 3.97143e-14)
(0.991169 -0.0106187 1.54889e-13)
(1.01897 -0.022923 -1.2133e-13)
(1.06068 -0.0260788 -1.07513e-12)
(1.1218 -0.0265096 -6.61999e-12)
(1.22484 -0.0204323 -5.57796e-12)
(1.38774 -0.0101513 3.22674e-13)
(1.62092 0.00943673 5.44121e-13)
(1.91291 0.0443653 1.97019e-12)
(2.24199 0.0932836 2.69923e-12)
(2.58145 0.151241 3.09231e-12)
(2.9161 0.206549 -4.36233e-12)
(3.23585 0.251056 -5.78843e-12)
(3.53619 0.285784 -3.38368e-12)
(3.8153 0.312703 7.6687e-12)
(4.0699 0.333531 2.63097e-12)
(4.30496 0.351585 5.33437e-12)
(4.52315 0.365002 5.41011e-12)
(4.72291 0.372748 7.75248e-12)
(4.90526 0.376873 -1.52309e-12)
(5.07081 0.375719 2.3375e-12)
(5.22064 0.370602 7.36792e-12)
(5.35672 0.362309 4.10978e-12)
(5.47703 0.349851 1.66982e-11)
(5.58085 0.336406 1.38517e-11)
(5.67265 0.324609 8.96279e-12)
(5.75562 0.314063 2.06688e-11)
(5.8293 0.303968 1.59188e-11)
(5.89532 0.295312 1.2885e-11)
(5.95217 0.288545 1.2448e-11)
(6.00228 0.284595 2.74807e-12)
(6.04435 0.282299 3.16907e-12)
(6.07444 0.280738 7.65119e-12)
(6.08796 0.286339 1.15223e-11)
(6.08171 0.299286 1.36094e-11)
(6.05165 0.328601 -2.81104e-12)
(5.978 0.37273 1.47872e-11)
(5.84056 0.457675 -1.83721e-11)
(5.55962 0.601021 -4.97927e-12)
(5.12124 0.79471 8.38758e-12)
(4.38025 0.846781 6.71764e-12)
(3.44135 0.734008 8.38342e-13)
(2.48983 0.407232 5.35985e-12)
(2.04405 0.303492 5.12298e-12)
(1.88637 0.159199 4.64078e-13)
(1.77915 0.0860638 -9.35401e-14)
(1.74191 0.0548239 -5.29169e-12)
(1.71555 0.0345753 -7.46411e-12)
(1.70407 0.0229971 -8.86218e-12)
(1.69103 0.0119666 2.79481e-13)
(0.920554 0.0168895 7.85202e-15)
(0.960039 0.0130872 -2.10144e-15)
(0.987023 0.0153591 -2.1279e-13)
(1.02027 0.0194576 -9.02749e-13)
(1.0597 0.0255457 -2.6749e-12)
(1.11381 0.0348861 -3.34533e-12)
(1.18968 0.044115 -2.4497e-12)
(1.29552 0.0507285 -5.01363e-12)
(1.43972 0.0583511 -2.49627e-12)
(1.62649 0.068073 -9.7778e-13)
(1.84976 0.0826357 -2.01197e-12)
(2.09661 0.10267 -3.72946e-12)
(2.3558 0.127252 -4.90088e-12)
(2.61855 0.155217 -4.38337e-12)
(2.87695 0.183395 -2.15327e-12)
(3.1246 0.208257 -2.59357e-12)
(3.36052 0.229669 2.71083e-12)
(3.58469 0.248091 3.75606e-12)
(3.79591 0.262225 7.17709e-12)
(3.99356 0.272132 -8.42259e-13)
(4.17662 0.277109 1.47071e-12)
(4.34579 0.278632 3.10068e-12)
(4.50176 0.276382 5.37972e-12)
(4.64272 0.269224 9.04534e-12)
(4.76826 0.260935 1.34639e-11)
(4.88255 0.254298 1.08316e-11)
(4.98706 0.248813 1.44371e-11)
(5.08176 0.24402 1.41976e-11)
(5.16906 0.240527 1.25556e-11)
(5.24662 0.238448 1.22602e-11)
(5.31562 0.238555 8.59478e-12)
(5.37501 0.239798 2.91127e-12)
(5.42274 0.242713 3.69137e-12)
(5.45532 0.252437 4.13929e-12)
(5.46456 0.271215 1.43488e-11)
(5.44764 0.304184 3.20595e-12)
(5.38677 0.356033 1.57675e-12)
(5.25719 0.44791 -1.42198e-11)
(4.9975 0.589005 3.94932e-13)
(4.59143 0.763485 4.91799e-12)
(3.92449 0.805096 5.57104e-12)
(3.09989 0.694258 1.31405e-12)
(2.31488 0.409189 2.27114e-12)
(1.981 0.288871 4.44167e-12)
(1.85424 0.153391 -5.01474e-12)
(1.76722 0.0886995 -3.54233e-12)
(1.73815 0.0567035 -5.39038e-12)
(1.71509 0.0364056 -6.4512e-12)
(1.70518 0.0242665 -9.12587e-12)
(1.69355 0.0126893 1.92344e-12)
(0.913963 0.0135246 4.90432e-15)
(0.941166 0.0220254 -1.67633e-15)
(0.964872 0.0313102 -1.27748e-13)
(0.991383 0.0400418 -7.88435e-13)
(1.02178 0.049068 -2.51792e-12)
(1.05887 0.0586673 -3.44875e-12)
(1.10359 0.067822 -2.65501e-12)
(1.16007 0.0768858 -2.78934e-12)
(1.23089 0.0839644 -2.37547e-12)
(1.31916 0.0890791 -2.01131e-12)
(1.42779 0.0929556 -8.96388e-12)
(1.55991 0.0929099 -6.2062e-12)
(1.71926 0.0940519 -5.2827e-12)
(1.8992 0.0992005 -3.67635e-12)
(2.09446 0.106158 -1.15879e-11)
(2.29895 0.116397 -8.34226e-12)
(2.5046 0.129994 7.91163e-12)
(2.70988 0.145981 4.5631e-12)
(2.91179 0.16111 7.9028e-12)
(3.10659 0.172405 -1.07773e-11)
(3.29305 0.179229 4.4118e-12)
(3.46964 0.183258 8.11105e-13)
(3.63476 0.18427 1.18442e-11)
(3.78838 0.181771 6.62884e-12)
(3.93021 0.179079 1.8116e-11)
(4.06228 0.177753 1.22873e-11)
(4.18487 0.176637 1.1626e-11)
(4.29792 0.176611 1.15597e-11)
(4.40255 0.177768 1.06751e-11)
(4.49708 0.178691 1.04978e-11)
(4.58337 0.181525 9.99523e-12)
(4.65955 0.186578 -3.05892e-12)
(4.72468 0.193958 9.94425e-14)
(4.77352 0.20904 3.63481e-13)
(4.79965 0.232477 7.23154e-12)
(4.79434 0.271084 -1.95976e-12)
(4.74414 0.329793 6.39442e-14)
(4.62478 0.424688 -3.5483e-12)
(4.39082 0.561735 4.28253e-12)
(4.01234 0.712989 3.89437e-12)
(3.43087 0.749245 4.90637e-12)
(2.73073 0.626944 9.81397e-13)
(2.13049 0.40323 -1.50881e-13)
(1.91935 0.274944 3.37901e-12)
(1.82345 0.142549 -9.36765e-12)
(1.75538 0.0896621 -6.74108e-12)
(1.73347 0.0577783 -6.41812e-12)
(1.71416 0.0377735 -6.2881e-12)
(1.70593 0.0252852 -8.51638e-12)
(1.69594 0.0132868 -4.78378e-13)
(0.909255 0.0112093 2.36392e-14)
(0.92941 0.0246747 1.05965e-13)
(0.949177 0.0369792 3.24676e-13)
(0.970869 0.0481342 -4.21594e-13)
(0.994698 0.0588691 -1.35426e-12)
(1.02233 0.0685862 -1.86111e-12)
(1.05503 0.077505 -1.92342e-12)
(1.09272 0.0853605 -1.95826e-12)
(1.13536 0.0920092 -1.91235e-12)
(1.18568 0.098444 -2.00236e-12)
(1.24378 0.102797 -3.40964e-12)
(1.30981 0.104377 -3.5405e-12)
(1.38788 0.104788 -3.41847e-12)
(1.48131 0.103423 -3.4123e-12)
(1.59163 0.0996902 3.07811e-12)
(1.71827 0.0964912 -6.95059e-13)
(1.85941 0.0954374 1.53603e-12)
(2.01348 0.0955568 1.18832e-12)
(2.17645 0.0965804 4.53067e-12)
(2.34261 0.0986628 -1.04934e-11)
(2.50863 0.100836 -3.4282e-12)
(2.6729 0.101909 -2.27353e-12)
(2.83268 0.102444 2.17868e-12)
(2.98627 0.102567 1.68014e-12)
(3.13242 0.102863 6.18926e-12)
(3.27095 0.103986 5.90265e-12)
(3.40184 0.105588 7.8947e-12)
(3.52542 0.107591 8.36291e-12)
(3.64193 0.110844 7.72434e-12)
(3.74949 0.114759 8.41023e-12)
(3.84927 0.120941 5.83438e-12)
(3.93858 0.129699 4.08627e-13)
(4.01679 0.141218 -8.10571e-13)
(4.07801 0.16074 -1.10722e-12)
(4.11642 0.189566 2.54538e-12)
(4.11966 0.232786 -1.73496e-13)
(4.07591 0.297185 -1.29725e-12)
(3.96825 0.392689 6.26368e-12)
(3.7538 0.52427 3.66462e-12)
(3.40668 0.647295 2.80215e-12)
(2.91909 0.676185 -2.76698e-12)
(2.36147 0.530513 -1.1213e-12)
(1.97476 0.385526 -2.05868e-12)
(1.86613 0.269476 1.41664e-12)
(1.79268 0.135316 -1.09336e-11)
(1.74343 0.0898257 -8.41776e-12)
(1.72785 0.0580945 -7.15393e-12)
(1.71263 0.0385954 -6.38996e-12)
(1.70618 0.0259692 -7.19587e-12)
(1.69804 0.0137087 -8.05383e-12)
(0.906515 0.00940005 1.37963e-14)
(0.92166 0.0236783 9.07699e-14)
(0.937733 0.0367084 5.23103e-13)
(0.955534 0.0485113 -3.8718e-13)
(0.975062 0.0595357 -1.59299e-12)
(0.996906 0.0697493 -1.51104e-12)
(1.02144 0.0788932 -1.51994e-12)
(1.04938 0.0864977 -1.53939e-12)
(1.08117 0.09289 -1.5701e-12)
(1.11555 0.0977618 -1.71912e-12)
(1.15168 0.100562 -2.23964e-12)
(1.19272 0.103415 -2.19389e-12)
(1.24056 0.105536 -2.05626e-12)
(1.2946 0.105514 -1.92069e-12)
(1.35563 0.104637 -6.02201e-13)
(1.4251 0.102783 -5.44175e-13)
(1.50485 0.099221 -8.285e-14)
(1.59627 0.0930603 -1.04138e-12)
(1.70059 0.0858497 -1.1799e-12)
(1.81623 0.0782933 3.41295e-12)
(1.94053 0.0706935 1.60539e-12)
(2.07091 0.0630566 -7.03811e-13)
(2.20414 0.0566833 -9.40636e-13)
(2.33775 0.0519705 -2.14804e-12)
(2.47009 0.0493435 9.19782e-13)
(2.6003 0.0485418 -1.77234e-14)
(2.72672 0.0495205 8.13675e-12)
(2.84838 0.0520325 5.69589e-12)
(2.96499 0.0564612 4.24696e-12)
(3.07419 0.0612797 6.15742e-12)
(3.17669 0.0691036 -4.12525e-12)
(3.26879 0.0798121 -3.57448e-12)
(3.35015 0.0943438 -3.23887e-12)
(3.41362 0.117106 -1.9152e-12)
(3.45311 0.149066 5.79938e-13)
(3.45707 0.196712 -1.43191e-12)
(3.41316 0.264124 -2.4549e-12)
(3.31285 0.361208 7.40128e-13)
(3.11253 0.471235 1.16383e-12)
(2.81129 0.567601 1.06519e-12)
(2.42014 0.570968 -1.12092e-12)
(2.03863 0.446553 -2.62316e-12)
(1.85388 0.32842 -3.08002e-12)
(1.80296 0.225713 -1.79875e-12)
(1.75954 0.126738 -1.12193e-11)
(1.73129 0.0872789 -7.86347e-12)
(1.72094 0.0572406 -6.77608e-12)
(1.71033 0.0384835 -6.08688e-12)
(1.70574 0.0261256 -6.44729e-12)
(1.69958 0.0138463 -6.43386e-12)
(0.904721 0.00778247 -5.51592e-14)
(0.916209 0.0210657 -3.83203e-13)
(0.929093 0.0334801 -2.35486e-13)
(0.943626 0.0449407 -4.71437e-13)
(0.959678 0.0556245 -8.57535e-13)
(0.977492 0.0654955 -1.08238e-12)
(0.997259 0.07448 -1.20513e-12)
(1.01898 0.0823284 -1.24801e-12)
(1.04251 0.0886007 -1.29046e-12)
(1.06811 0.0930012 -1.48301e-12)
(1.09689 0.0961156 -2.4578e-12)
(1.12854 0.0985214 -1.44143e-12)
(1.16156 0.0991077 -1.03422e-12)
(1.19799 0.099305 -8.44112e-13)
(1.23977 0.0989678 -4.94673e-13)
(1.28632 0.0975736 -2.17128e-13)
(1.33831 0.0939099 -5.46196e-13)
(1.39733 0.0887152 -5.07294e-12)
(1.46506 0.082339 -3.40083e-12)
(1.54171 0.0739151 -1.54488e-12)
(1.62733 0.0639823 5.31204e-14)
(1.72071 0.0527857 -4.91309e-12)
(1.81935 0.0427597 -5.19002e-12)
(1.92178 0.0344701 -6.3426e-12)
(2.02604 0.0285223 1.63941e-12)
(2.1306 0.0246929 -2.43126e-12)
(2.2347 0.0233592 -1.88696e-12)
(2.3371 0.02361 -1.10902e-12)
(2.43585 0.0256368 -6.10502e-13)
(2.52972 0.0293536 2.35054e-12)