/*--------------------------------*- C++ -*----------------------------------*\
| =========                 |                                                 |
| \\      /  F ield         | OpenFOAM: The Open Source CFD Toolbox           |
|  \\    /   O peration     | Version:  2.4.x                                 |
|   \\  /    A nd           | Web:      www.OpenFOAM.org                      |
|    \\/     M anipulation  |                                                 |
\*---------------------------------------------------------------------------*/
FoamFile
{
    version     2.0;
    format      ascii;
    class       volScalarField;
    location    "0.07";
    object      varZ;
}
// * * * * * * * * * * * * * * * * * * * * * * * * * * * * * * * * * * * * * //

dimensions      [0 0 0 0 0 0 0];

internalField   nonuniform List<scalar> 
1250
(
0.00111887
0.00460489
0.00989892
0.0160601
0.0225973
0.0289623
0.0347384
0.0395796
0.0433805
0.0462158
0.0481365
0.0493094
0.0497415
0.0496649
0.0492542
0.0483501
0.047163
0.0457905
0.0442842
0.0426895
0.041049
0.0393903
0.037744
0.0361249
0.0345501
0.0330318
0.031581
0.0301996
0.0289033
0.0276889
0.0265518
0.0255458
0.02458
0.0237287
0.0230931
0.0222633
0.0216959
0.0218087
0.0229903
0.0275537
0.0430942
0.0461577
0.0335185
0.0106542
0.00206574
0.000370184
6.76848e-05
1.22383e-05
2.12424e-06
3.40128e-07
0.00125895
0.00517027
0.0110337
0.0177285
0.024683
0.0312423
0.0370292
0.0417268
0.045325
0.0479444
0.0496435
0.050605
0.0508527
0.0506623
0.0500758
0.0490521
0.0477851
0.0463429
0.0447791
0.0431379
0.041459
0.0397693
0.0380976
0.0364584
0.034866
0.0333339
0.0318718
0.0304812
0.0291777
0.0279578
0.0268176
0.0258087
0.0248419
0.0239924
0.0233532
0.0225218
0.0219608
0.0220655
0.023265
0.0278543
0.0433212
0.0460844
0.0333621
0.0105827
0.00205151
0.000367865
6.72995e-05
1.21755e-05
2.11454e-06
3.3876e-07
0.00167433
0.0068194
0.0142957
0.0223894
0.030256
0.0370594
0.0426547
0.0468666
0.0498977
0.0519382
0.0530668
0.0535213
0.0533799
0.0528471
0.0518773
0.050617
0.0491576
0.0475578
0.0458652
0.0441195
0.0423555
0.0405965
0.0388684
0.0371837
0.0355526
0.0339893
0.0325017
0.0310909
0.0297713
0.0285392
0.027392
0.0263768
0.0254078
0.024562
0.0239144
0.0230797
0.0225363
0.0226189
0.0238721
0.0285296
0.0438086
0.0459137
0.0329758
0.0103985
0.0020139
0.000361741
6.62991e-05
1.20116e-05
2.08876e-06
3.35039e-07
0.00284836
0.0111466
0.0223217
0.0327864
0.0414568
0.0478579
0.0525108
0.0555141
0.0573279
0.0582723
0.0583768
0.05806
0.0572465
0.0560667
0.0546182
0.0529798
0.0512205
0.049379
0.0474906
0.0455863
0.0436931
0.0418286
0.0400144
0.0382596
0.036571
0.0349582
0.0334318
0.0319902
0.0306464
0.0293962
0.0282383
0.0272134
0.0262408
0.0253997
0.0247387
0.0239006
0.0233879
0.0234762
0.0247882
0.0295602
0.0444599
0.0456347
0.032348
0.010096
0.00195213
0.00035173
6.46682e-05
1.17434e-05
2.04627e-06
3.28845e-07
0.00774665
0.024375
0.0422203
0.0537338
0.0609457
0.0649773
0.0671078
0.067738
0.0675088
0.0667836
0.0655025
0.063967
0.0621941
0.0602434
0.0581711
0.0560411
0.0538907
0.0517348
0.0495918
0.0474813
0.0454193
0.0434163
0.0414892
0.0396417
0.0378776
0.0362014
0.0346221
0.0331405
0.0317656
0.0304921
0.0293202
0.028283
0.0273055
0.0264684
0.0257892
0.02495
0.0244819
0.0245909
0.0259857
0.0309677
0.0451256
0.0452328
0.0314796
0.00968303
0.00186876
0.000338264
6.24753e-05
1.13825e-05
1.98897e-06
3.20471e-07
0.0492036
0.0687639
0.0811363
0.0861269
0.0876933
0.0869409
0.0850029
0.0823748
0.0795033
0.0766248
0.0736864
0.0707741
0.0678948
0.0650621
0.0622847
0.0595999
0.0570038
0.0544863
0.0520498
0.0497006
0.0474415
0.0452766
0.0432166
0.0412597
0.0394064
0.0376573
0.0360171
0.0344876
0.0330771
0.0317775
0.0305894
0.029538
0.0285552
0.0277199
0.0270184
0.0261841
0.0257735
0.0259143
0.0274134
0.0326679
0.0456979
0.0446985
0.0303738
0.00917159
0.00176706
0.000321885
5.98073e-05
1.09433e-05
1.91923e-06
3.10274e-07
0.0702527
0.110628
0.119244
0.118058
0.114233
0.108434
0.102508
0.0967701
0.0913836
0.0864698
0.0819074
0.0776729
0.0737277
0.0700354
0.0665698
0.0633414
0.0602998
0.0574153
0.054679
0.0520834
0.0496186
0.0472844
0.0450846
0.0430119
0.0410643
0.039239
0.0375381
0.0359599
0.0345129
0.0331876
0.0319836
0.0309179
0.0299301
0.0290942
0.0283681
0.027548
0.0272053
0.0273863
0.0290046
0.0345829
0.0460889
0.043999
0.0290377
0.00857842
0.00165115
0.000303252
5.67689e-05
1.04429e-05
1.83982e-06
2.98673e-07
0.0306347
0.1148
0.135542
0.135826
0.131144
0.123431
0.115431
0.107866
0.100885
0.0945999
0.0888776
0.0836709
0.0789136
0.0745493
0.0705408
0.0668589
0.0634368
0.0602329
0.0572327
0.0544162
0.0517643
0.0492762
0.0469473
0.0447665
0.0427321
0.0408373
0.0390839
0.0374663
0.035989
0.0346429
0.0334265
0.0323492
0.0313581
0.0305197
0.0297699
0.0289759
0.0287066
0.0289347
0.0306719
0.0365942
0.0462036
0.0431298
0.0274832
0.0079252
0.00152597
0.000283136
5.34801e-05
9.90087e-06
1.75387e-06
2.86138e-07
0.0171092
0.0859472
0.122447
0.132753
0.132127
0.12754
0.120428
0.113144
0.106065
0.0994649
0.0933573
0.0877688
0.0826415
0.077944
0.0736536
0.0696989
0.0660282
0.0626113
0.0594272
0.0564511
0.0536616
0.0510596
0.0486324
0.0463685
0.0442701
0.0423255
0.0405381
0.0388984
0.0374068
0.0360505
0.0348298
0.0337467
0.0327561
0.0319154
0.0311471
0.0303928
0.0301974
0.0304788
0.0323176
0.0384718
0.0460351
0.0420944
0.0257299
0.00723832
0.00139701
0.000262368
5.00697e-05
9.33817e-06
1.66478e-06
2.7318e-07
0.0121084
0.0470774
0.084862
0.10778
0.117353
0.118718
0.116047
0.111199
0.105577
0.0998563
0.0943349
0.089112
0.0841932
0.0796017
0.0753629
0.0713924
0.0676734
0.0642037
0.0609592
0.0579215
0.0550778
0.0524258
0.0499526
0.0476505
0.0455278
0.0435673
0.0417761
0.0401395
0.0386563
0.0373088
0.0360959
0.0350166
0.0340331
0.0331933
0.0324163
0.0317162
0.0315919
0.0319339
0.0338482
0.0400467
0.0455685
0.0409119
0.023816
0.00654779
0.00126964
0.000241771
4.66685e-05
8.77644e-06
1.57604e-06
2.60329e-07
0.00306578
0.0179007
0.0418641
0.0684491
0.0875579
0.0976206
0.101425
0.101119
0.0989806
0.0953599
0.0913348
0.0871637
0.0830005
0.0789645
0.0751306
0.071451
0.0679588
0.0646587
0.0615319
0.0585734
0.0557911
0.0531813
0.050741
0.0484718
0.0463802
0.0444528
0.0426998
0.0410998
0.0396537
0.0383396
0.0371533
0.036092
0.0351262
0.0342948
0.0335231
0.0328947
0.032838
0.033253
0.035227
0.0412214
0.044754
0.0394665
0.0218085
0.00586201
0.00114446
0.000221392
4.32806e-05
8.21619e-06
1.48775e-06
2.47606e-07
0.00137976
0.00698857
0.0171593
0.0322106
0.0502768
0.0659307
0.076277
0.081865
0.0841308
0.0840461
0.0828789
0.0806803
0.0780413
0.0752044
0.072282
0.0693134
0.06638
0.0635179
0.0607305
0.0580358
0.0554678
0.0530336
0.0507401
0.048608
0.0466311
0.0448148
0.0431614
0.0416472
0.0402796
0.0390322
0.0379021
0.0368822
0.0359522
0.0351446
0.0344001
0.0338711
0.0338804
0.0343961
0.036458
0.0418721
0.0435306
0.0375816
0.0196235
0.00514809
0.00101476
0.000199973
3.96683e-05
7.61353e-06
1.39219e-06
2.33771e-07
0.000779202
0.00337716
0.00757995
0.0136806
0.0224039
0.0334703
0.0449442
0.0545368
0.0612714
0.0654105
0.0675801
0.0682427
0.0679336
0.0669909
0.0655397
0.0637734
0.0618738
0.0598607
0.0577623
0.0556319
0.0535339
0.0514939
0.0495318
0.0476753
0.0459292
0.0443216
0.0428417
0.0414837
0.0402509
0.0391168
0.0380874
0.0371469
0.0362846
0.0355296
0.0348503
0.0344597
0.0345437
0.0352006
0.0373518
0.0417904
0.0417936
0.0350258
0.0171788
0.00437926
0.000875217
0.000176361
3.55825e-05
6.91729e-06
1.27954e-06
2.17107e-07
0.000485685
0.00190405
0.00390851
0.00654417
0.0100319
0.014683
0.0206694
0.0277461
0.0349596
0.0413952
0.0464449
0.0500511
0.0523644
0.0536841
0.0542138
0.0541141
0.0536823
0.052872
0.0517946
0.0505426
0.0492073
0.0478196
0.0464175
0.0450414
0.0437096
0.0424597
0.0412792
0.0401869
0.0391728
0.0382257
0.0373539
0.0365405
0.0357914
0.0351372
0.0345863
0.0343711
0.0345609
0.035399
0.0376229
0.0407243
0.0394795
0.0316425
0.0143971
0.00356291
0.000726573
0.000150393
3.09377e-05
6.10328e-06
1.14409e-06
1.96474e-07
0.000317469
0.00116971
0.00226041
0.00358774
0.00518263
0.00712329
0.00952263
0.0125288
0.0161881
0.0204094
0.0249204
0.0292956
0.0331293
0.036269
0.0386861
0.0403837
0.0415271
0.0421956
0.0424133
0.0423185
0.0420162
0.0414996
0.0408577
0.0401442
0.0393933
0.0386502
0.037903
0.0371814
0.0364845
0.0358236
0.035197
0.0345983
0.0340525
0.0335945
0.0332787
0.0332991
0.0336766
0.0347305
0.0368597
0.038487
0.0362647
0.0272711
0.0113872
0.00273252
0.000573694
0.000122638
2.57839e-05
5.172e-06
9.84388e-07
1.71388e-07
0.000212795
0.000749866
0.0013989
0.00215021
0.00300011
0.00395773
0.00504627
0.00630815
0.00779407
0.00956034
0.0116486
0.0140462
0.0167086
0.0194827
0.0222099
0.0247115
0.0269012
0.0287393
0.0301674
0.0312096
0.031945
0.0324091
0.0326488
0.0327105
0.0326675
0.0325446
0.0323364
0.0320925
0.0318177
0.0315327
0.0312445
0.030969
0.0307396
0.0306071
0.0306323
0.0309146
0.0316344
0.0329127
0.0346342
0.0350269
0.0318924
0.0220029
0.00826461
0.00194398
0.000425811
9.44184e-05
2.03315e-05
4.15565e-06
8.04788e-07
1.42321e-07
0.000143285
0.000490589
0.000896699
0.00135388
0.00185465
0.0023948
0.00297558
0.00360394
0.0042923
0.00505802
0.0059251
0.00691729
0.00806719
0.00937905
0.0108507
0.0124645
0.0141707
0.0159076
0.0175804
0.0191088
0.020453
0.021595
0.022535
0.0232891
0.023894
0.0243764
0.0247459
0.0250346
0.025259
0.0254402
0.0255983
0.0257598
0.0259637
0.0262582
0.0266973
0.0273947
0.0284262
0.0297466
0.0308533
0.030344
0.0262428
0.0160241
0.00533884
0.00126742
0.000293626
6.76915e-05
1.49462e-05
3.11953e-06
6.16089e-07
1.10881e-07
9.5805e-05
0.00032236
0.000582567
0.000871565
0.00118379
0.00151429
0.00185968
0.00221883
0.00259311
0.00298598
0.00340416
0.00385552
0.00435114
0.00490286
0.0055261
0.00623061
0.00702163
0.00790182
0.00887316
0.00991099
0.0109823
0.0120474
0.0130791
0.0140552
0.014966
0.0158089
0.0165811
0.0172904
0.0179471
0.0185647
0.0191642
0.0197701
0.0204161
0.0211416
0.0219881
0.0230017
0.02417
0.0253037
0.0256938
0.0243782
0.0194122
0.0099672
0.00300575
0.000749885
0.000185319
4.44255e-05
1.00712e-05
2.15033e-06
4.34089e-07
7.96718e-08
6.29758e-05
0.000209887
0.000377308
0.000562481
0.000761968
0.000972168
0.00118978
0.00141221
0.00163782
0.00186625
0.00209854
0.00233644
0.00258308
0.00284303
0.00312265
0.00342713
0.00376419
0.00414386
0.00457575
0.00506951
0.00563691
0.00627702
0.00697584
0.00772081
0.00849787
0.00929455
0.0100998
0.0109064
0.011713
0.0125222
0.0133446
0.0141935
0.0150879
0.0160467
0.0170766
0.018149
0.0191634
0.0198098
0.0195204
0.0173765
0.0119201
0.00502022
0.00147916
0.000401062
0.000105351
2.61799e-05
6.09854e-06
1.33477e-06
2.75937e-07
5.1736e-08
4.02073e-05
0.000133538
0.000239878
0.000357802
0.000485356
0.0006202
0.000759848
0.000901924
0.0010444
0.00118571
0.00132492
0.0014618
0.00159701
0.001732
0.00186913
0.00201158
0.00216433
0.0023343
0.00252955
0.0027608
0.00304443
0.00339414
0.00380841
0.00428386
0.00481614
0.00539967
0.0060285
0.00669713
0.00740255
0.00814326
0.00892136
0.00973973
0.0105998
0.0114938
0.0123868
0.0131959
0.0137593
0.0137576
0.0128194
0.0100128
0.00550469
0.00206357
0.000648685
0.000191078
5.27203e-05
1.35344e-05
3.24197e-06
7.28513e-07
1.54491e-07
2.96205e-08
2.44819e-05
8.15266e-05
0.000147031
0.000220344
0.000300345
0.000385537
0.000474165
0.00056436
0.000654303
0.000742371
0.000827233
0.000907972
0.000984203
0.00105616
0.00112515
0.00119344
0.00126452
0.00134377
0.00143862
0.0015578
0.00171239
0.00191436
0.00216639
0.0024669
0.00281494
0.00320877
0.00364617
0.00412472
0.00464191
0.00519512
0.00578054
0.00639116
0.00701246
0.00761331
0.00813336
0.00846749
0.0084635
0.00795577
0.00649144
0.0041487
0.00196648
0.00074835
0.000254546
7.92001e-05
2.2629e-05
5.97731e-06
1.47104e-06
3.39373e-07
7.38427e-08
1.44616e-08
1.37375e-05
4.63767e-05
8.4623e-05
0.000128202
0.000176409
0.000228213
0.00028236
0.000337468
0.000392132
0.000445032
0.000495014
0.000541159
0.000582957
0.000620347
0.000654051
0.000685641
0.000718008
0.00075576
0.000804899
0.000871991
0.000963737
0.00108733
0.00124519
0.00143582
0.00165836
0.00191149
0.00219325
0.00250089
0.00283043
0.00317632
0.00352952
0.00387516
0.00418842
0.00443243
0.00454181
0.00447999
0.00413986
0.00338388
0.00233998
0.00131165
0.000605362
0.00024088
8.54017e-05
2.7337e-05
8.00333e-06
2.16539e-06
5.45995e-07
1.29042e-07
2.8759e-08
5.72872e-09
6.50854e-06
2.30856e-05
4.34888e-05
6.74495e-05
9.44211e-05
0.000123656
0.000154296
0.000185418
0.000216074
0.000245358
0.000272473
0.000296791
0.000317916
0.000335851
0.00035122
0.000365232
0.000380021
0.000398895
0.000425875
0.000465123
0.000520157
0.000594287
0.000688983
0.000802869
0.000934459
0.00108178
0.00124201
0.0014111
0.00158337
0.00175083
0.00190295
0.00202599
0.00209762
0.00210101
0.00202547
0.00181137
0.00147142
0.00105661
0.000654344
0.000346643
0.000158434
6.34474e-05
2.26901e-05
7.3463e-06
2.18229e-06
6.00341e-07
1.54108e-07
3.71011e-08
8.42667e-09
1.69317e-09
1.8486e-06
8.11592e-06
1.72417e-05
2.83271e-05
4.09402e-05
5.46571e-05
6.91128e-05
8.38213e-05
9.8266e-05
0.000111968
0.00012449
0.000135491
0.000144769
0.000152289
0.000158394
0.000164055
0.000170829
0.000180446
0.000195009
0.000216577
0.000246511
0.000285679
0.000334392
0.000391507
0.000455734
0.000525346
0.000597434
0.000668039
0.000731996
0.000783012
0.00081373
0.000818986
0.000799171
0.000734629
0.000631776
0.000502944
0.000364042
0.000235612
0.000134519
6.72299e-05
2.95698e-05
1.1571e-05
4.08749e-06
1.31699e-06
3.91215e-07
1.08037e-07
2.79254e-08
6.7775e-09
1.5536e-09
3.09368e-10
6.37027e-08
1.17845e-06
2.84042e-06
4.80321e-06
7.12914e-06
9.73229e-06
1.25766e-05
1.55733e-05
1.85628e-05
2.14179e-05
2.40248e-05
2.63015e-05
2.82211e-05
2.97385e-05
3.09086e-05
3.20502e-05
3.36276e-05
3.59971e-05
3.95284e-05
4.45077e-05
5.10495e-05
5.9129e-05
6.8685e-05
7.93988e-05
9.08547e-05
0.000102538
0.000113664
0.000123248
0.000130166
0.000133288
0.000131691
0.000124829
0.000112668
9.57469e-05
7.6117e-05
5.6109e-05
3.79549e-05
2.33094e-05
1.28886e-05
6.38888e-06
2.8597e-06
1.17348e-06
4.50479e-07
1.38649e-07
3.15312e-08
7.87055e-09
2.48697e-09
6.60404e-10
1.22633e-10
2.09441e-11
)
;

boundaryField
{
    AXIS
    {
        type            empty;
    }
    OUTLET
    {
        type            zeroGradient;
    }
    COFLOW
    {
        type            fixedValue;
        value           uniform 0;
    }
    PILOT
    {
        type            fixedValue;
        value           uniform 0;
    }
    FUEL
    {
        type            fixedValue;
        value           uniform 0;
    }
    WALL
    {
        type            zeroGradient;
    }
    front
    {
        type            wedge;
    }
    back
    {
        type            wedge;
    }
}


// ************************************************************************* //
