/*--------------------------------*- C++ -*----------------------------------*\
| =========                 |                                                 |
| \\      /  F ield         | OpenFOAM: The Open Source CFD Toolbox           |
|  \\    /   O peration     | Version:  2.4.x                                 |
|   \\  /    A nd           | Web:      www.OpenFOAM.org                      |
|    \\/     M anipulation  |                                                 |
\*---------------------------------------------------------------------------*/
FoamFile
{
    version     2.0;
    format      ascii;
    class       volScalarField;
    location    "0.07";
    object      Z;
}
// * * * * * * * * * * * * * * * * * * * * * * * * * * * * * * * * * * * * * //

dimensions      [0 0 0 0 0 0 0];

internalField   nonuniform List<scalar> 
1250
(
0.997379
0.989514
0.978925
0.966906
0.9537
0.939733
0.925392
0.911171
0.897317
0.883873
0.870805
0.85801
0.845598
0.833553
0.821888
0.810603
0.799565
0.788729
0.778107
0.767694
0.757472
0.74743
0.737551
0.727739
0.718005
0.708348
0.698745
0.689201
0.67964
0.670107
0.66053
0.650764
0.641138
0.630982
0.620752
0.61073
0.599043
0.589106
0.575662
0.542304
0.447876
0.288187
0.141666
0.0460009
0.00968183
0.00182301
0.000346065
6.48733e-05
1.16889e-05
1.94499e-06
0.996974
0.988106
0.976578
0.963644
0.949571
0.934977
0.92023
0.905851
0.891954
0.878533
0.865537
0.852868
0.840605
0.828724
0.817225
0.806092
0.7952
0.784504
0.774022
0.763746
0.753655
0.743735
0.733968
0.724263
0.714626
0.705064
0.69555
0.68609
0.676609
0.66715
0.657638
0.647936
0.638362
0.628255
0.618094
0.608114
0.596493
0.586634
0.573163
0.539704
0.445316
0.28661
0.140895
0.0457175
0.00962114
0.00181256
0.00034427
6.45733e-05
1.16416e-05
1.93824e-06
0.995716
0.984016
0.96988
0.954494
0.938384
0.922584
0.907225
0.892739
0.878937
0.865795
0.853156
0.84091
0.829088
0.817655
0.80659
0.795871
0.785352
0.77501
0.76487
0.754923
0.745139
0.735509
0.726005
0.716546
0.707148
0.6978
0.688495
0.679227
0.669928
0.660637
0.651271
0.641718
0.632259
0.622263
0.612255
0.602365
0.590886
0.581196
0.567642
0.533887
0.439458
0.28286
0.138988
0.0449817
0.009459
0.00178465
0.00033955
6.37779e-05
1.15135e-05
1.9194e-06
0.991827
0.973498
0.953458
0.93369
0.915069
0.898466
0.883175
0.869319
0.856445
0.844324
0.832676
0.821406
0.810521
0.79997
0.789747
0.779794
0.769948
0.760235
0.750686
0.741291
0.732021
0.722868
0.713799
0.704745
0.695733
0.686747
0.677773
0.668813
0.659801
0.650773
0.641638
0.632316
0.623036
0.613214
0.603442
0.593684
0.58242
0.572965
0.559264
0.525012
0.430493
0.276999
0.135932
0.0437692
0.00919041
0.00173864
0.000331794
6.24664e-05
1.13005e-05
1.88766e-06
0.973984
0.940184
0.91134
0.889013
0.871016
0.856507
0.843876
0.832641
0.822325
0.812473
0.802821
0.793377
0.784149
0.775109
0.766257
0.757506
0.748713
0.739969
0.731312
0.722739
0.714226
0.705772
0.697337
0.68887
0.680404
0.671942
0.663448
0.65492
0.64631
0.637646
0.628832
0.619826
0.610795
0.601219
0.59176
0.582174
0.571199
0.562021
0.548103
0.513186
0.418694
0.269205
0.13181
0.042115
0.00882591
0.00167639
0.000321314
6.06934e-05
1.10119e-05
1.84454e-06
0.798778
0.825871
0.817352
0.807798
0.799386
0.79282
0.786911
0.781093
0.775297
0.769277
0.762941
0.75636
0.749641
0.742807
0.7359
0.728817
0.721505
0.714111
0.706685
0.699233
0.691749
0.68424
0.676658
0.668976
0.661232
0.653446
0.645597
0.637646
0.629558
0.621362
0.612966
0.604362
0.595652
0.586404
0.577329
0.567951
0.557343
0.548469
0.534262
0.498555
0.404414
0.259722
0.126739
0.0400703
0.00837894
0.0016003
0.000308511
5.85285e-05
1.06596e-05
1.7919e-06
0.50282
0.64155
0.677058
0.693756
0.703109
0.70924
0.71323
0.715332
0.715837
0.715142
0.713322
0.710548
0.707127
0.703178
0.69881
0.693843
0.688431
0.682775
0.67692
0.670894
0.66472
0.658405
0.6519
0.645204
0.638361
0.631408
0.624341
0.617118
0.609682
0.602062
0.594184
0.586067
0.577752
0.568924
0.560297
0.551159
0.541005
0.532444
0.517895
0.481334
0.38807
0.248836
0.120865
0.0377027
0.00786652
0.00151328
0.000293876
5.60548e-05
1.02575e-05
1.73194e-06
0.320037
0.452069
0.516571
0.560138
0.590205
0.611101
0.626797
0.638133
0.646203
0.651544
0.654965
0.656762
0.657216
0.656762
0.655456
0.653013
0.649889
0.646329
0.64235
0.638028
0.633427
0.628531
0.623307
0.617787
0.612014
0.606049
0.59989
0.593515
0.586864
0.579927
0.572666
0.565118
0.557276
0.548961
0.540837
0.531985
0.522387
0.514129
0.499206
0.461828
0.370118
0.236861
0.114352
0.0350952
0.00730944
0.00141887
0.000277977
5.33681e-05
9.82172e-06
1.66711e-06
0.239621
0.28035
0.353269
0.418684
0.468137
0.504334
0.531952
0.552865
0.568831
0.580703
0.589811
0.596497
0.601267
0.604524
0.606459
0.60692
0.606479
0.605322
0.603455
0.601074
0.598274
0.59498
0.591218
0.587048
0.582495
0.577657
0.572522
0.56709
0.561321
0.55518
0.548626
0.541726
0.534438
0.526726
0.519145
0.510649
0.501723
0.493738
0.478445
0.440452
0.350993
0.224121
0.107381
0.0323447
0.00673111
0.0013209
0.000261433
5.05726e-05
9.36945e-06
1.60014e-06
0.134228
0.137482
0.20179
0.280217
0.344376
0.394013
0.432507
0.462622
0.486152
0.504534
0.51938
0.531
0.540183
0.547321
0.552631
0.556286
0.558749
0.560215
0.56071
0.560484
0.5597
0.558157
0.55603
0.553382
0.550172
0.546581
0.542565
0.538155
0.533329
0.528068
0.522313
0.516136
0.509483
0.502459
0.495453
0.487412
0.479271
0.471507
0.455912
0.417674
0.331109
0.210949
0.100143
0.0295554
0.00615495
0.00122325
0.000244881
4.77768e-05
8.91891e-06
1.53387e-06
0.0176965
0.0471238
0.0918751
0.157623
0.224834
0.282528
0.329559
0.367586
0.398089
0.422766
0.443004
0.459506
0.473123
0.484209
0.493008
0.500122
0.505848
0.510225
0.513382
0.515559
0.51693
0.517383
0.517111
0.516192
0.514439
0.512231
0.509433
0.506137
0.502332
0.498019
0.493172
0.48781
0.481897
0.475654
0.469277
0.461842
0.454603
0.447007
0.431226
0.393231
0.31024
0.197235
0.0925919
0.0267387
0.00558343
0.00112617
0.00022834
4.4983e-05
8.47066e-06
1.46844e-06
0.00499906
0.0177889
0.0371102
0.0705955
0.119058
0.173118
0.22309
0.266327
0.302636
0.333075
0.35837
0.379712
0.397702
0.41283
0.425386
0.436128
0.445249
0.452759
0.458878
0.463806
0.46766
0.470431
0.472255
0.473196
0.473138
0.472543
0.471106
0.469077
0.466428
0.46319
0.459386
0.454988
0.449975
0.444661
0.439032
0.432456
0.42625
0.418814
0.40293
0.365796
0.287213
0.182132
0.0842278
0.0237403
0.00498474
0.0010234
0.000210592
4.19601e-05
7.98294e-06
1.39695e-06
0.00218824
0.00824704
0.0166955
0.0299602
0.0515739
0.0836101
0.123149
0.164177
0.202253
0.236267
0.26582
0.29155
0.313662
0.332778
0.349258
0.363547
0.375999
0.386737
0.395985
0.403886
0.410459
0.41576
0.419917
0.422953
0.424862
0.425925
0.425981
0.425493
0.424177
0.422185
0.419595
0.416346
0.412455
0.408261
0.403591
0.398229
0.393138
0.385866
0.370057
0.334501
0.261211
0.164884
0.0745655
0.0204319
0.00433202
0.000908905
0.000190295
3.84246e-05
7.39956e-06
1.30929e-06
0.00121114
0.00452034
0.00883319
0.0147456
0.0233402
0.0362002
0.0549668
0.0802311
0.10996
0.141136
0.171077
0.198779
0.223647
0.2459
0.265757
0.283317
0.299023
0.313008
0.325366
0.336236
0.345598
0.353519
0.360089
0.36531
0.369262
0.372143
0.373986
0.375034
0.375128
0.374685
0.373507
0.371602
0.369113
0.36628
0.362913
0.359082
0.355044
0.34809
0.332856
0.299458
0.232115
0.145198
0.0634148
0.0168325
0.00362663
0.00078138
0.0001669
3.42253e-05
6.68474e-06
1.19812e-06
0.000763148
0.00276654
0.00526545
0.00840575
0.0124714
0.0179163
0.0253804
0.0357431
0.0497763
0.0677983
0.0891428
0.112345
0.135657
0.158196
0.179466
0.199086
0.217156
0.233766
0.248792
0.262278
0.274223
0.284609
0.293454
0.300807
0.306775
0.311563
0.315257
0.318001
0.319814
0.32093
0.321287
0.321061
0.320343
0.319198
0.31752
0.315359
0.312335
0.306166
0.292198
0.261039
0.199952
0.122936
0.0508647
0.0130782
0.00289058
0.000643271
0.00014056
2.93398e-05
5.82494e-06
1.0596e-06
0.000515395
0.00181297
0.00338644
0.00527045
0.00754362
0.0103344
0.0138278
0.0182894
0.0240638
0.0315723
0.0412411
0.0533273
0.0677989
0.0841647
0.101729
0.119664
0.137423
0.154658
0.170915
0.185934
0.199591
0.211755
0.222369
0.231506
0.239266
0.245838
0.251305
0.255811
0.259435
0.262332
0.264574
0.266282
0.267576
0.2685
0.268743
0.268265
0.266486
0.261594
0.249085
0.219719
0.16516
0.0982391
0.0375529
0.00944024
0.00217022
0.000501123
0.000112286
2.39172e-05
4.83847e-06
8.95207e-07
0.000359833
0.00123662
0.00227891
0.00349581
0.00490951
0.00655842
0.00850099
0.0108184
0.013619
0.0170419
0.0212688
0.0265059
0.0330058
0.0409441
0.0504307
0.0614727
0.0738852
0.0873331
0.101272
0.115156
0.128474
0.140844
0.152079
0.162138
0.171085
0.179013
0.186003
0.192183
0.197637
0.202454
0.206736
0.210564
0.214011
0.217042
0.219348
0.220329
0.219681
0.215941
0.204315
0.17622
0.128585
0.071761
0.0248193
0.00625936
0.00151859
0.000364891
8.39656e-05
1.82919e-05
3.78035e-06
7.13004e-07
0.000254266
0.000860196
0.00157098
0.00239025
0.00332522
0.0043886
0.0055999
0.00698722
0.00858917
0.0104556
0.0126527
0.0152593
0.0183765
0.0221242
0.0266402
0.0320515
0.0384609
0.0459145
0.0543973
0.0637311
0.0735581
0.0834373
0.0931004
0.102375
0.111172
0.119454
0.127209
0.134452
0.141213
0.147516
0.153413
0.158916
0.16401
0.168567
0.172221
0.174192
0.173982
0.17046
0.158659
0.131782
0.091475
0.0454806
0.0143706
0.00378118
0.000977351
0.000244526
5.78823e-05
1.29259e-05
2.73586e-06
5.27224e-07
0.000179138
0.000600433
0.00109117
0.00165393
0.00229211
0.00301082
0.00381769
0.00472367
0.00574385
0.00689908
0.00821767
0.00973479
0.0114962
0.0135591
0.0159961
0.0188815
0.0223001
0.0263262
0.0310127
0.0363869
0.0424126
0.0489114
0.0557093
0.0626949
0.069767
0.076836
0.0838304
0.0906842
0.0973529
0.10379
0.109969
0.11582
0.121235
0.125986
0.129626
0.131336
0.130713
0.126138
0.113179
0.0887206
0.0558762
0.0236902
0.00731341
0.0020793
0.000571136
0.000148359
3.61616e-05
8.2966e-06
1.80248e-06
3.55558e-07
0.000124063
0.000414306
0.000752157
0.00114004
0.00158043
0.00207609
0.00263049
0.00324845
0.00393675
0.00470485
0.00556592
0.00653796
0.00764588
0.00892262
0.0104105
0.0121589
0.0142256
0.0166704
0.0195376
0.0228627
0.0266824
0.0309595
0.0355827
0.0404834
0.0456037
0.0508816
0.0562592
0.0616701
0.0670511
0.0723272
0.0774172
0.0822032
0.0865091
0.0900333
0.0922892
0.0925969
0.090659
0.0841499
0.0704724
0.0500785
0.0266765
0.0102182
0.00334721
0.00103062
0.0002974
7.99255e-05
2.0073e-05
4.73924e-06
1.05872e-06
2.14004e-07
8.28913e-05
0.000277511
0.000505738
0.000769968
0.00107217
0.00141408
0.00179753
0.00222468
0.00269865
0.00322404
0.00380759
0.00445928
0.00519312
0.00602888
0.00699465
0.00812643
0.0094677
0.0110675
0.0129696
0.0152042
0.0177973
0.020745
0.023972
0.0274115
0.0310159
0.0347348
0.0385194
0.0423126
0.04605
0.0496538
0.053022
0.0560104
0.0584138
0.059938
0.0601228
0.0588541
0.0548513
0.046952
0.0352463
0.0214564
0.0101061
0.00394319
0.00139242
0.000451946
0.000135067
3.73956e-05
9.66744e-06
2.34851e-06
5.39553e-07
1.11633e-07
5.16482e-05
0.000175345
0.000323521
0.000498363
0.000701265
0.00093314
0.00119474
0.00148689
0.00181088
0.00216892
0.00256463
0.00300351
0.00349398
0.00404859
0.00468568
0.00543003
0.00631402
0.00737684
0.00865638
0.0101784
0.0119557
0.0139836
0.0162062
0.0185574
0.0209871
0.0234441
0.0258765
0.0282256
0.0304247
0.0323942
0.0340318
0.0352074
0.0356889
0.0354483
0.0341483
0.0311777
0.0264847
0.0202041
0.0132554
0.00725533
0.00336946
0.00137558
0.000505414
0.000168632
5.16564e-05
1.46673e-05
3.89181e-06
9.70544e-07
2.28863e-07
4.82358e-08
2.75313e-05
9.8372e-05
0.000187951
0.0002975
0.000427597
0.000578394
0.000749984
0.000942509
0.00115628
0.00139216
0.0016519
0.00193855
0.00225684
0.00261456
0.00302412
0.0035021
0.00406947
0.00475289
0.00557907
0.00656445
0.00771019
0.00900731
0.0104191
0.0118895
0.0133684
0.0148035
0.0161418
0.0173267
0.0182979
0.0189886
0.0193056
0.0192485
0.0187228
0.0174497
0.0155056
0.0129128
0.0098508
0.00672472
0.00403874
0.00212207
0.000981248
0.000403291
0.000149386
5.0414e-05
1.56805e-05
4.53294e-06
1.22653e-06
3.12118e-07
7.51304e-08
1.5983e-08
9.02313e-06
4.00769e-05
8.74368e-05
0.000148469
0.000222953
0.00031085
0.00041257
0.000527915
0.000656734
0.000799267
0.000956079
0.00112858
0.00131873
0.00152981
0.00176902
0.00204782
0.00237886
0.00277625
0.00325525
0.00382305
0.00447348
0.00519246
0.0059568
0.00672967
0.0074725
0.00814392
0.00870055
0.00909905
0.00929678
0.00929646
0.00908996
0.00852418
0.00766447
0.0065611
0.0052935
0.00397566
0.00274124
0.00171162
0.000959027
0.000478655
0.000213326
8.55708e-05
3.12897e-05
1.05221e-05
3.27822e-06
9.52229e-07
2.595e-07
6.65964e-08
1.61916e-08
3.41075e-09
3.63874e-07
7.2945e-06
2.0614e-05
4.07163e-05
6.79002e-05
0.00010235
0.000144277
0.000193834
0.000250805
0.00031426
0.000381689
0.00045493
0.000535772
0.000624307
0.000721707
0.000831892
0.00096048
0.00111166
0.00128829
0.00148984
0.00171109
0.00194299
0.00217465
0.00239092
0.00257593
0.00271462
0.0027921
0.00279582
0.00271837
0.00255879
0.00231911
0.00201092
0.00166247
0.00130355
0.000963739
0.000667443
0.000430093
0.000256438
0.000141581
7.27847e-05
3.06498e-05
9.53163e-06
3.17941e-06
1.2813e-06
4.02005e-07
9.75732e-08
2.40709e-08
5.84575e-09
1.37995e-09
2.74448e-10
)
;

boundaryField
{
    AXIS
    {
        type            empty;
    }
    OUTLET
    {
        type            inletOutlet;
        inletValue      uniform 0;
        value           nonuniform List<scalar> 
25
(
1.94499e-06
1.93824e-06
1.9194e-06
1.88766e-06
1.84454e-06
1.7919e-06
1.73194e-06
1.66711e-06
1.60014e-06
1.53387e-06
1.46844e-06
1.39695e-06
1.30929e-06
1.19812e-06
1.0596e-06
8.95207e-07
7.13004e-07
5.27224e-07
3.55558e-07
2.14004e-07
1.11633e-07
4.82358e-08
1.5983e-08
3.41075e-09
2.74448e-10
)
;
    }
    COFLOW
    {
        type            fixedValue;
        value           uniform 0;
    }
    PILOT
    {
        type            fixedValue;
        value           uniform 0.271;
    }
    FUEL
    {
        type            fixedValue;
        value           uniform 1;
    }
    WALL
    {
        type            zeroGradient;
    }
    front
    {
        type            wedge;
    }
    back
    {
        type            wedge;
    }
}


// ************************************************************************* //
