/*--------------------------------*- C++ -*----------------------------------*\
| =========                 |                                                 |
| \\      /  F ield         | OpenFOAM: The Open Source CFD Toolbox           |
|  \\    /   O peration     | Version:  2.4.x                                 |
|   \\  /    A nd           | Web:      www.OpenFOAM.org                      |
|    \\/     M anipulation  |                                                 |
\*---------------------------------------------------------------------------*/
FoamFile
{
    version     2.0;
    format      ascii;
    class       volScalarField;
    location    "0.04";
    object      alphat;
}
// * * * * * * * * * * * * * * * * * * * * * * * * * * * * * * * * * * * * * //

dimensions      [1 -1 -1 0 0 0 0];

internalField   nonuniform List<scalar> 
1250
(
0.0365607
0.0208692
0.0128077
0.00837535
0.00598315
0.00466867
0.00384923
0.00328751
0.00285797
0.00250629
0.00222274
0.00201173
0.00182819
0.00167188
0.00153511
0.00140904
0.00131097
0.00122761
0.00115436
0.00108414
0.00102668
0.000973074
0.000910552
0.00090082
0.000905579
0.000925644
0.00105627
0.00152693
0.00197625
0.00232185
0.00221403
0.00172314
0.00150124
0.0017265
0.00196161
0.00203302
0.00204362
0.00204319
0.0020418
0.00204131
0.00204105
0.00203989
0.00203939
0.00203983
0.0020409
0.00204241
0.00204222
0.00204076
0.00203951
0.00203925
0.0351392
0.0190115
0.0113333
0.00736743
0.00534199
0.0042467
0.00356486
0.00308597
0.00269207
0.00238166
0.00213208
0.00193987
0.00177178
0.00162684
0.00149482
0.00138119
0.00128771
0.00120849
0.00113817
0.00107069
0.00101534
0.000963913
0.000902859
0.00089476
0.000901888
0.00092427
0.00106078
0.001537
0.00198184
0.00232358
0.00221128
0.00172196
0.00150229
0.00172823
0.00196226
0.00203304
0.0020435
0.00204306
0.00204168
0.00204119
0.00204091
0.00203973
0.00203926
0.00203971
0.00204076
0.00204227
0.00204209
0.00204061
0.00203941
0.00203911
0.0313008
0.0148313
0.00838067
0.00555218
0.00424935
0.0035337
0.00306603
0.00268729
0.00239417
0.00215689
0.00196237
0.00180269
0.00166037
0.00153344
0.00142171
0.00132276
0.00124025
0.00116893
0.00110486
0.00104276
0.000991841
0.000944784
0.000886926
0.000882248
0.000893427
0.000921893
0.00107194
0.00156077
0.00199503
0.00232692
0.00220388
0.00171825
0.00150525
0.00173296
0.00196397
0.00203313
0.00204324
0.00204276
0.00204143
0.00204095
0.00204062
0.0020394
0.00203894
0.00203938
0.00204047
0.00204197
0.00204177
0.00204029
0.00203912
0.0020388
0.0229873
0.00902005
0.00511585
0.00380105
0.00321999
0.00280574
0.00252409
0.0022714
0.00208072
0.00190835
0.00176078
0.001638
0.00152631
0.00142392
0.00133081
0.00124799
0.00117866
0.00111692
0.00106055
0.00100536
0.00096054
0.00091891
0.000866179
0.000865961
0.000878357
0.000920799
0.00109758
0.00159904
0.0020159
0.00233022
0.00219129
0.00171185
0.00151055
0.00174114
0.00196684
0.00203332
0.00204285
0.00204232
0.00204104
0.00204058
0.00204018
0.0020389
0.00203845
0.00203889
0.00204002
0.0020415
0.00204128
0.00203983
0.00203868
0.00203833
0.0101636
0.00385035
0.00307004
0.00273398
0.00250107
0.00227557
0.00212318
0.00194922
0.00180659
0.00168173
0.00157699
0.00148218
0.00139458
0.00131322
0.00123719
0.00116842
0.00111177
0.00105929
0.00101109
0.000963587
0.000925573
0.000889738
0.000843402
0.000849716
0.000866982
0.000921737
0.00113518
0.00165156
0.00204118
0.00233479
0.00217381
0.00170296
0.00151849
0.00175277
0.00197079
0.00203357
0.00204233
0.00204173
0.00204053
0.00204006
0.00203957
0.00203825
0.00203781
0.00203825
0.00203944
0.00204087
0.00204064
0.00203923
0.00203809
0.00203771
0.00220946
0.00227183
0.00228197
0.0021686
0.00206416
0.00191499
0.00179767
0.00168077
0.00157721
0.00148927
0.00141585
0.00134547
0.00127844
0.00121076
0.00114804
0.00109224
0.00104565
0.00100188
0.000961293
0.000921373
0.000890187
0.00085983
0.000821396
0.000836733
0.0008602
0.000928951
0.00117742
0.00169216
0.0020673
0.00233897
0.00215422
0.00169184
0.00152936
0.00176767
0.00197565
0.00203387
0.00204167
0.002041
0.00203987
0.00203936
0.00203878
0.00203743
0.00203703
0.0020375
0.00203873
0.0020401
0.00203986
0.00203852
0.00203736
0.00203696
0.000829404
0.00149126
0.00174453
0.00177353
0.00175485
0.00164035
0.00155817
0.00147362
0.00139408
0.00132803
0.00127062
0.00121548
0.00116346
0.00111429
0.00106681
0.00102181
0.000983381
0.000947248
0.00091364
0.000881013
0.000856554
0.000831426
0.00080257
0.000828505
0.00085859
0.000945844
0.00124251
0.00173078
0.00209373
0.00234294
0.00213017
0.00167898
0.00154365
0.00178546
0.00198119
0.00203415
0.00204088
0.00204011
0.00203906
0.00203843
0.00203778
0.00203646
0.00203613
0.00203662
0.0020379
0.00203921
0.00203896
0.00203768
0.0020365
0.00203609
0.000338386
0.00103454
0.00133275
0.00143781
0.00145999
0.00140608
0.00135156
0.00129072
0.00123228
0.00118562
0.00114211
0.00110031
0.00106057
0.00102298
0.000988166
0.000957548
0.000926379
0.000897079
0.000869959
0.000844272
0.000825623
0.000805797
0.000788916
0.000825926
0.000863209
0.000969459
0.00132032
0.00177059
0.00211683
0.00234604
0.00210075
0.00166592
0.00156174
0.00180562
0.00198717
0.00203437
0.00203995
0.00203908
0.00203807
0.00203732
0.00203665
0.00203537
0.0020351
0.00203564
0.00203695
0.00203823
0.00203798
0.00203672
0.00203551
0.0020351
0.00034224
0.000753489
0.00099659
0.00111922
0.00117949
0.00118331
0.00115604
0.00112659
0.00108851
0.00105883
0.00102693
0.000995784
0.000966142
0.000938373
0.00091334
0.000892619
0.000871662
0.000848801
0.000828157
0.00080955
0.000797407
0.000784304
0.000782243
0.000829206
0.000873255
0.00100819
0.00140316
0.00181299
0.00213744
0.00234201
0.00207045
0.00165707
0.00158381
0.0018274
0.00199326
0.00203449
0.00203888
0.00203791
0.0020369
0.00203614
0.00203548
0.00203417
0.00203396
0.00203454
0.00203588
0.00203714
0.00203689
0.00203564
0.0020344
0.00203399
0.000647115
0.00068246
0.000765572
0.000856951
0.000928555
0.000961144
0.00096539
0.000960591
0.000939148
0.000923991
0.000902174
0.000884044
0.000865847
0.000848015
0.000833367
0.000823722
0.000812296
0.000797537
0.000784026
0.000773152
0.000768305
0.00076449
0.000779921
0.000833877
0.000893737
0.00107142
0.00148987
0.0018552
0.00215727
0.00232737
0.00204154
0.00164998
0.00160978
0.00184996
0.00199915
0.00203446
0.0020377
0.00203661
0.00203558
0.00203481
0.00203424
0.00203295
0.00203273
0.00203331
0.00203468
0.00203593
0.00203568
0.00203444
0.00203318
0.00203277
0.00285263
0.001126
0.000735593
0.000684254
0.000723799
0.000766387
0.000791053
0.000805118
0.000808179
0.000809521
0.00079252
0.000785705
0.000774702
0.000764636
0.000758675
0.000756487
0.000753118
0.000747691
0.000743686
0.000742415
0.000745991
0.000753809
0.00078852
0.00084573
0.000930361
0.00115918
0.00155415
0.00189949
0.00217387
0.00230486
0.00201205
0.0016452
0.00163979
0.00187305
0.00200477
0.00203424
0.00203637
0.00203516
0.00203411
0.00203333
0.0020328
0.00203158
0.00203139
0.00203195
0.00203332
0.00203457
0.00203432
0.00203309
0.00203182
0.0020314
0.00580805
0.00234271
0.0011316
0.000712316
0.000615948
0.000613924
0.000633964
0.000660174
0.000675327
0.000688713
0.000692927
0.000700023
0.000698976
0.000700172
0.000704813
0.000704983
0.000704467
0.000706208
0.000710788
0.000719443
0.000733324
0.000756939
0.00080553
0.00087325
0.000994951
0.00127013
0.00161343
0.00193616
0.00219147
0.00227363
0.00197754
0.00164327
0.00167569
0.00189748
0.00201028
0.00203379
0.00203481
0.00203347
0.00203241
0.00203164
0.00203114
0.00202997
0.00202978
0.00203035
0.00203174
0.00203298
0.00203273
0.00203151
0.00203024
0.00202981
0.00776459
0.00410196
0.00218458
0.00121562
0.000766653
0.000590267
0.000539756
0.000539233
0.00055334
0.000573313
0.000587825
0.00060285
0.000613995
0.000625607
0.000637861
0.000647054
0.000659055
0.000672608
0.000689293
0.00071064
0.00073804
0.000778727
0.000843156
0.000929537
0.00108944
0.00136692
0.00167552
0.00196919
0.0022072
0.00223583
0.00193916
0.00164521
0.00171946
0.00192368
0.00201569
0.00203305
0.00203296
0.00203147
0.00203041
0.00202967
0.00202922
0.0020281
0.00202788
0.00202847
0.00202986
0.00203109
0.00203082
0.00202963
0.00202836
0.00202792
0.0088633
0.00582316
0.00367894
0.00230521
0.00143647
0.000925264
0.00065353
0.000534595
0.000493061
0.000487661
0.000498519
0.000517074
0.000537093
0.000557419
0.000578829
0.000599798
0.000623065
0.000649493
0.000679361
0.000715366
0.000760306
0.000819833
0.000904494
0.00102427
0.00120386
0.00145491
0.00175169
0.00200723
0.00221042
0.00218955
0.00189408
0.00166018
0.00177183
0.00195093
0.00202068
0.00203192
0.00203077
0.00202913
0.00202807
0.00202739
0.00202699
0.00202594
0.00202565
0.00202625
0.00202766
0.00202884
0.00202855
0.00202739
0.00202614
0.0020257
0.00948151
0.0071743
0.00521137
0.00368459
0.0025607
0.00174771
0.00118662
0.000830454
0.000625361
0.000525015
0.000495384
0.00049768
0.000513936
0.00053629
0.000563702
0.000594246
0.000628556
0.00066731
0.000711265
0.000762112
0.000823757
0.000902439
0.00100629
0.00114719
0.00133057
0.00156056
0.00181604
0.00204618
0.00220159
0.00213138
0.00184882
0.00169708
0.00183192
0.00197742
0.00202465
0.00203022
0.00202817
0.00202638
0.00202535
0.00202472
0.0020243
0.00202331
0.00202301
0.00202359
0.00202503
0.00202613
0.00202582
0.00202469
0.00202351
0.00202308
0.00983712
0.00811707
0.006461
0.00500101
0.00377056
0.00278396
0.00202187
0.001454
0.00105907
0.000810709
0.000675967
0.000623419
0.000612258
0.000619224
0.000639613
0.000669628
0.000707388
0.000752263
0.000804587
0.00086613
0.000939811
0.00103073
0.00114488
0.00129052
0.00146183
0.00166285
0.00188076
0.00207336
0.00217696
0.00206388
0.0018122
0.00175324
0.00189558
0.00200028
0.00202681
0.00202765
0.00202496
0.00202305
0.00202213
0.00202138
0.0020208
0.00201994
0.00201973
0.00202027
0.00202175
0.00202272
0.00202238
0.00202133
0.00202026
0.00201988
0.0100436
0.00872533
0.0073474
0.00601937
0.00480052
0.00372644
0.00282601
0.00212743
0.00158656
0.00122265
0.00101936
0.000908849
0.000853647
0.000832372
0.000833603
0.000850516
0.000879521
0.000918344
0.000967738
0.00102768
0.00110086
0.00119081
0.00130115
0.00143649
0.00158443
0.00175638
0.00194139
0.00209316
0.00213143
0.00198459
0.00179382
0.00182958
0.00195502
0.00201631
0.00202617
0.00202369
0.0020207
0.00201873
0.00201789
0.00201694
0.00201592
0.00201528
0.00201551
0.00201608
0.00201737
0.00201804
0.00201772
0.0020168
0.00201596
0.00201565
0.0101631
0.00909631
0.00791941
0.0067141
0.00553873
0.00444691
0.00347797
0.00266653
0.00203811
0.00159765
0.00134542
0.0012045
0.00112889
0.00109284
0.00108183
0.00108785
0.00110648
0.00113594
0.00117691
0.00122914
0.00129398
0.00137399
0.00147195
0.00158673
0.00170698
0.00185088
0.00199872
0.00208941
0.00206398
0.00191154
0.00183185
0.0019149
0.0019986
0.00202264
0.00202145
0.00201723
0.00201428
0.00201238
0.00201146
0.00201029
0.0020088
0.00200829
0.00200878
0.00200982
0.0020106
0.00201075
0.00201065
0.00200997
0.00200941
0.00200916
0.0102326
0.0093169
0.00827369
0.00716585
0.00604319
0.00495693
0.00395847
0.0030972
0.00239697
0.00190887
0.00162344
0.00145889
0.00137298
0.00133233
0.00131921
0.00132324
0.00133885
0.00136359
0.00139727
0.00143995
0.00149453
0.00156204
0.00164302
0.00173065
0.00182467
0.0019409
0.00202876
0.00205184
0.00197677
0.00187559
0.00190932
0.00198418
0.00201707
0.00201688
0.00201029
0.00200569
0.00200306
0.00200139
0.00200041
0.00199899
0.00199707
0.0019966
0.00199725
0.00199858
0.00199897
0.00199877
0.00199865
0.00199811
0.0019979
0.00199777
0.0102723
0.00944396
0.00848658
0.00745314
0.00638597
0.00533168
0.00434087
0.00347052
0.00274803
0.00220667
0.00186682
0.00167922
0.00157925
0.00153439
0.00152196
0.00152801
0.00154547
0.0015706
0.00160202
0.00163959
0.00168423
0.00173593
0.00179674
0.00185399
0.00192763
0.0019886
0.00201011
0.00197789
0.0019139
0.0019297
0.00198105
0.00200849
0.00200579
0.00199518
0.00198727
0.00198302
0.00198096
0.00197973
0.00197869
0.00197687
0.00197466
0.00197416
0.00197498
0.0019762
0.00197603
0.00197534
0.00197521
0.00197499
0.00197529
0.00197529
0.010283
0.00947974
0.00856361
0.00758667
0.00658682
0.00559903
0.00466085
0.00381243
0.00309365
0.00251931
0.002118
0.00187682
0.00174859
0.00169215
0.00167579
0.00168252
0.0017025
0.00172913
0.00175964
0.00179329
0.00182904
0.00186686
0.00189741
0.00193331
0.00196011
0.00196264
0.00194885
0.00192722
0.00194621
0.00197551
0.00198582
0.00197481
0.00195893
0.00194682
0.00193946
0.00193559
0.00193389
0.00193299
0.00193166
0.00192972
0.00192786
0.00192775
0.00192839
0.0019284
0.00192735
0.00192669
0.00192651
0.00192708
0.00192798
0.00192787
0.0102256
0.00931055
0.00835079
0.00739924
0.0064782
0.00560003
0.00477586
0.00401794
0.00335098
0.00280068
0.00236729
0.00206567
0.00189033
0.00179557
0.00175585
0.00175651
0.00177332
0.00179746
0.00182393
0.00184987
0.00187368
0.00188902
0.00190594
0.00191264
0.00190606
0.00190329
0.00191088
0.0019221
0.00192704
0.00191475
0.00189198
0.00187048
0.00185486
0.00184448
0.00183791
0.00183406
0.0018322
0.00183118
0.0018295
0.0018273
0.00182571
0.00182557
0.00182551
0.00182486
0.001824
0.00182386
0.00182457
0.00182487
0.00182473
0.00182444
0.00985298
0.00844424
0.00728568
0.00634732
0.00556093
0.00488166
0.00429669
0.00374091
0.00323774
0.0027997
0.00243648
0.00215803
0.00194574
0.00182046
0.00175882
0.0017335
0.00173
0.00173771
0.00175102
0.00176352
0.00177298
0.00178631
0.00179217
0.00179422
0.00179372
0.0017901
0.00177814
0.00175421
0.00172216
0.00169094
0.00166629
0.00164894
0.00163697
0.00162835
0.00162225
0.00161833
0.00161597
0.0016145
0.00161287
0.00161101
0.00160998
0.0016098
0.00160953
0.00160898
0.00160817
0.00160705
0.00160746
0.00160801
0.00160791
0.00160771
0.00741456
0.00517515
0.00419195
0.00359847
0.00322064
0.00291609
0.00266325
0.00244425
0.00223783
0.00203547
0.00185837
0.00171161
0.00160083
0.00153072
0.00148234
0.0014647
0.00145845
0.00145517
0.00145924
0.00146512
0.00145742
0.00144
0.00141549
0.00138261
0.00134266
0.00132193
0.00130011
0.00126927
0.00124063
0.00121691
0.00120241
0.00119282
0.00118584
0.00118031
0.00117617
0.00117334
0.00117114
0.00116949
0.00116839
0.00116716
0.00116695
0.00116723
0.00116697
0.00116625
0.00116579
0.00116464
0.00116429
0.00116469
0.00116457
0.00116403
0.000679288
0.000631476
0.00057485
0.000529338
0.000491774
0.000461702
0.000429968
0.000404363
0.00038719
0.000372512
0.000360527
0.000351336
0.000344894
0.0003409
0.000338724
0.000337828
0.000337609
0.000337609
0.000337522
0.000337083
0.000336152
0.000334776
0.000333061
0.000331163
0.000329273
0.00032754
0.000325989
0.000324668
0.000323614
0.000322817
0.000322238
0.000321819
0.00032151
0.000321274
0.000321094
0.000320958
0.000320854
0.000320779
0.000320731
0.000320701
0.000320693
0.0003207
0.000320712
0.000320722
0.000320728
0.00032072
0.000320717
0.000320722
0.000320723
0.000320712
)
;

boundaryField
{
    AXIS
    {
        type            empty;
    }
    OUTLET
    {
        type            calculated;
        value           nonuniform List<scalar> 
25
(
0.00203924
0.0020391
0.00203879
0.00203832
0.0020377
0.00203695
0.00203608
0.00203509
0.00203398
0.00203276
0.00203139
0.00202979
0.00202791
0.00202569
0.00202307
0.00201987
0.00201564
0.00200915
0.00199776
0.00197528
0.00192786
0.00182443
0.0016077
0.00116402
0.00032071
)
;
    }
    COFLOW
    {
        type            calculated;
        value           nonuniform List<scalar> 
15
(
0.0106245
0.0106245
0.0106244
0.0106244
0.0106243
0.0106243
0.0106243
0.0106243
0.0106243
0.0106243
0.0106243
0.0106243
0.0106243
0.0106243
0.0106243
)
;
    }
    PILOT
    {
        type            calculated;
        value           nonuniform List<scalar> 5(0.0014112 0.00141123 0.00141136 0.0014114 0.00141143);
    }
    FUEL
    {
        type            calculated;
        value           nonuniform List<scalar> 5(0.0472944 0.047293 0.0472988 0.0473157 0.0473262);
    }
    WALL
    {
        type            compressible::alphatWallFunction;
        Prt             0.85;
        value           nonuniform List<scalar> 
50
(
9.62362e-05
8.91456e-05
8.06611e-05
7.3765e-05
6.80151e-05
6.33712e-05
5.84227e-05
5.44019e-05
5.16844e-05
4.93497e-05
4.74341e-05
4.59579e-05
4.49174e-05
4.42663e-05
4.39062e-05
4.3752e-05
4.37085e-05
4.37036e-05
4.36889e-05
4.36223e-05
4.34827e-05
4.32772e-05
4.30204e-05
4.27352e-05
4.24498e-05
4.21859e-05
4.1947e-05
4.17418e-05
4.15767e-05
4.1451e-05
4.13593e-05
4.12926e-05
4.12432e-05
4.12054e-05
4.11766e-05
4.11548e-05
4.11382e-05
4.11261e-05
4.11185e-05
4.11139e-05
4.11126e-05
4.11139e-05
4.11159e-05
4.11177e-05
4.11186e-05
4.11174e-05
4.11169e-05
4.11179e-05
4.11181e-05
4.11163e-05
)
;
    }
    front
    {
        type            wedge;
    }
    back
    {
        type            wedge;
    }
}


// ************************************************************************* //
