/*--------------------------------*- C++ -*----------------------------------*\
| =========                 |                                                 |
| \\      /  F ield         | OpenFOAM: The Open Source CFD Toolbox           |
|  \\    /   O peration     | Version:  2.4.x                                 |
|   \\  /    A nd           | Web:      www.OpenFOAM.org                      |
|    \\/     M anipulation  |                                                 |
\*---------------------------------------------------------------------------*/
FoamFile
{
    version     2.0;
    format      ascii;
    class       volScalarField;
    location    "0.04";
    object      chi;
}
// * * * * * * * * * * * * * * * * * * * * * * * * * * * * * * * * * * * * * //

dimensions      [0 0 -1 0 0 0 0];

internalField   nonuniform List<scalar> 
1250
(
0.0307006
0.210847
0.658145
1.50612
2.83213
4.54544
6.47423
8.44364
10.2175
11.7427
12.9901
13.84
14.4203
14.6858
14.79
14.668
14.3431
13.899
13.3747
12.8046
12.1987
11.6069
10.9588
10.3695
10.4315
11.5062
15.5493
22.0278
21.5313
14.4243
5.67646
1.34489
0.202373
0.0268407
0.00444997
0.00086933
0.000173478
3.37532e-05
6.35176e-06
1.15529e-06
2.03155e-07
3.45208e-08
5.65583e-09
8.91651e-10
1.34975e-10
1.95809e-11
2.71896e-12
3.60489e-13
4.5542e-14
5.37628e-15
0.0360121
0.254855
0.819106
1.89084
3.5086
5.49649
7.64631
9.69663
11.4954
12.9642
14.1078
14.8743
15.3161
15.501
15.5056
15.252
14.8483
14.3414
13.7579
13.1401
12.4938
11.8639
11.1969
10.5776
10.6185
11.7076
15.8173
22.0616
21.453
14.2986
5.62216
1.33106
0.200214
0.0265891
0.00441627
0.000863652
0.000172464
3.35767e-05
6.3224e-06
1.15064e-06
2.02457e-07
3.44214e-08
5.64242e-09
8.89971e-10
1.34785e-10
1.95623e-11
2.71757e-12
3.60457e-13
4.55565e-14
5.38031e-15
0.052568
0.408028
1.4011
3.21487
5.65879
8.30752
10.8207
12.9722
14.6631
15.912
16.763
17.2294
17.4032
17.3466
17.0298
16.5532
15.968
15.3069
14.5934
13.87
13.1338
12.4218
11.7086
11.0394
11.0221
12.1478
16.3714
22.1209
21.2719
13.9853
5.48179
1.29438
0.19455
0.025946
0.00433185
0.000849454
0.00016991
3.31271e-05
6.24637e-06
1.13834e-06
2.00558e-07
3.41405e-08
5.60277e-09
8.8467e-10
1.34118e-10
1.94845e-11
2.7093e-12
3.59682e-13
4.5498e-14
5.37787e-15
0.110174
1.00425
3.58112
7.43359
11.3776
14.7987
17.3856
19.2714
20.3534
20.9683
21.185
21.0805
20.6819
20.0958
19.3576
18.5281
17.6537
16.7542
15.8437
14.9621
14.0922
13.2607
12.4795
11.7422
11.6461
12.8374
17.1679
22.2192
20.9798
13.4907
5.25761
1.23448
0.185287
0.0249039
0.00419584
0.00082655
0.000165773
3.23938e-05
6.12125e-06
1.11788e-06
1.97349e-07
3.36573e-08
5.53309e-09
8.75091e-10
1.32866e-10
1.93309e-11
2.69168e-12
3.57813e-13
4.53196e-14
5.36314e-15
0.556195
4.81782
12.8566
20.0966
24.8819
27.8507
28.9892
29.4568
29.0755
28.3607
27.3911
26.2663
25.0177
23.7123
22.3837
21.0808
19.8248
18.6147
17.4526
16.3699
15.3299
14.3516
13.4877
12.6667
12.512
13.7574
18.0859
22.2888
20.5208
12.8445
4.9602
1.15402
0.172911
0.0235176
0.00401439
0.000795911
0.000160227
3.1408e-05
5.95244e-06
1.09015e-06
1.92978e-07
3.29949e-08
5.43684e-09
8.61741e-10
1.31103e-10
1.91119e-11
2.66608e-12
3.55024e-13
4.50431e-14
5.33874e-15
12.1984
30.1906
43.0436
47.4363
48.4098
47.8243
45.5189
42.8672
40.0813
37.4056
34.8351
32.3801
30.0534
27.8816
25.8643
24.0191
22.3281
20.7662
19.322
18.0138
16.7811
15.6451
14.6939
13.7725
13.5859
14.8948
19.0325
22.2407
19.8406
12.0926
4.6003
1.05735
0.158169
0.0218667
0.00379631
0.00075889
0.000153512
3.02125e-05
5.74738e-06
1.05642e-06
1.87649e-07
3.21851e-08
5.31895e-09
8.45363e-10
1.28939e-10
1.88426e-11
2.63458e-12
3.51591e-13
4.47031e-14
5.30875e-15
23.8011
62.6202
75.9732
76.2414
72.7502
68.5047
62.3345
56.5434
51.2571
46.5621
42.3417
38.5381
35.1368
32.1112
29.4175
27.043
24.9274
23.0211
21.3006
19.7685
18.3421
17.0592
16.0253
14.9873
14.8134
16.2123
19.8169
21.9929
18.9584
11.2346
4.19604
0.949853
0.141967
0.0200464
0.00355218
0.000717122
0.000145917
2.88587e-05
5.51505e-06
1.01822e-06
1.81609e-07
3.12673e-08
5.18557e-09
8.26884e-10
1.2651e-10
1.85424e-11
2.5998e-12
3.47864e-13
4.43436e-14
5.27843e-15
9.67714
55.4491
84.3825
89.4992
86.563
81.0842
73.7211
66.4808
59.8055
53.8175
48.4468
43.67
39.4707
35.7928
32.577
29.78
27.3238
25.1375
23.1882
21.4633
19.8702
18.4746
17.3636
16.2045
16.1011
17.5677
20.3521
21.49
17.878
10.2942
3.76775
0.837284
0.125267
0.0181561
0.00329341
0.000672409
0.000137763
2.7404e-05
5.2655e-06
9.77203e-07
1.75133e-07
3.02864e-08
5.04372e-09
8.07376e-10
1.23973e-10
1.82332e-11
2.56479e-12
3.44251e-13
4.40164e-14
5.25397e-15
3.86011
32.1586
65.7444
81.8024
84.5273
82.17
76.6763
70.0764
63.5958
57.4134
51.7883
46.7431
42.2724
38.3267
34.8695
31.8522
29.2042
26.8469
24.7548
22.895
21.1923
19.734
18.5412
17.312
17.3105
18.7067
20.5373
20.7184
16.6156
9.30566
3.32853
0.72533
0.108947
0.0162876
0.00303123
0.000626601
0.000129385
2.5909e-05
5.00935e-06
9.35136e-07
1.68514e-07
2.92911e-08
4.90109e-09
7.88013e-10
1.21503e-10
1.79404e-11
2.53304e-12
3.41211e-13
4.37801e-14
5.24245e-15
1.79723
12.5499
34.9558
55.9394
67.4062
71.0028
70.2837
66.5773
62.2187
57.043
52.121
47.3917
43.1118
39.2907
35.9068
32.9123
30.2489
27.8641
25.7544
23.85
22.1119
20.6441
19.3716
18.1974
18.2508
19.3185
20.3574
19.7525
15.2073
8.29531
2.89365
0.619248
0.0937465
0.014518
0.00277603
0.000581507
0.000121117
2.44346e-05
4.75738e-06
8.93936e-07
1.6207e-07
2.83315e-08
4.76576e-09
7.70055e-10
1.19285e-10
1.76907e-11
2.50828e-12
3.39241e-13
4.36984e-14
5.25157e-15
0.170463
2.5917
11.4484
26.6774
41.4641
51.0523
55.5706
56.1546
54.8991
51.8039
48.7342
45.0719
41.6502
38.4267
35.4499
32.7436
30.2677
28.0195
25.9926
24.1421
22.4551
21.0286
19.7111
18.7482
18.7419
19.3094
19.7741
18.4858
13.6846
7.26427
2.47115
0.520022
0.0797464
0.0128509
0.00252827
0.000537204
0.000112974
2.29838e-05
4.51012e-06
8.53729e-07
1.55842e-07
2.74164e-08
4.63926e-09
7.53796e-10
1.17377e-10
1.74941e-11
2.49218e-12
3.38604e-13
4.38102e-14
5.28662e-15
0.0455797
0.515519
2.56521
7.99397
17.0683
27.2921
35.2552
39.921
42.0135
41.9924
41.1079
39.1777
37.2385
35.0623
32.8218
30.7127
28.6907
26.8039
25.0428
23.397
21.8926
20.5969
19.4292
18.7191
18.6258
18.6476
18.7339
16.8725
12.0411
6.18801
2.04729
0.423805
0.0662885
0.0111925
0.00227205
0.000490529
0.000104314
2.14304e-05
4.2438e-06
8.10191e-07
1.49072e-07
2.64192e-08
4.50132e-09
7.3608e-10
1.15311e-10
1.72846e-11
2.4758e-12
3.38148e-13
4.39751e-14
5.3316e-15
0.0203508
0.152053
0.590456
1.77578
4.48639
9.22444
15.4577
21.3544
25.7586
28.4124
29.7248
29.8928
29.5203
28.6709
27.5356
26.3557
25.0366
23.7313
22.4413
21.2004
20.0546
19.0585
18.1939
17.791
17.5714
17.4849
17.1853
14.8305
10.2203
5.06208
1.61878
0.329558
0.0531061
0.00947944
0.00199285
0.000438138
9.43902e-05
1.96147e-05
3.92573e-06
7.56935e-07
1.40563e-07
2.5125e-08
4.31491e-09
7.10815e-10
1.12124e-10
1.69169e-11
2.4382e-12
3.34998e-13
4.38168e-14
5.34059e-15
0.0112689
0.0627182
0.188276
0.462552
1.04359
2.2201
4.33674
7.42564
11.0521
14.3594
16.8733
18.5266
19.4972
19.9258
19.9407
19.6986
19.2524
18.6929
18.0707
17.4377
16.8298
16.3242
15.9331
15.7546
15.7245
15.6929
14.9539
12.437
8.26223
3.91708
1.20134
0.241009
0.0405881
0.00772941
0.00168864
0.000378895
8.28524e-05
1.7446e-05
3.53464e-06
6.89311e-07
1.29361e-07
2.33488e-08
4.04611e-09
6.72091e-10
1.06837e-10
1.62368e-11
2.35628e-12
3.25862e-13
4.28898e-14
5.25763e-15
0.00687106
0.0317806
0.0796382
0.166631
0.321671
0.5981
1.09675
1.95556
3.27596
5.00852
6.83687
8.48851
9.85136
10.9034
11.6588
12.1663
12.4781
12.6465
12.7157
12.7357
12.7475
12.793
12.8928
13.0781
13.2656
13.2149
12.2871
9.81556
6.24384
2.81316
0.819548
0.163247
0.0292731
0.00600283
0.00136641
0.000313512
6.97263e-05
1.49054e-05
3.06226e-06
6.04945e-07
1.14893e-07
2.09655e-08
3.66979e-09
6.15236e-10
9.86351e-11
1.51101e-11
2.20916e-12
3.07669e-13
4.07668e-14
5.02776e-15
0.0043682
0.0179791
0.0403305
0.0761652
0.133115
0.223988
0.370539
0.60789
0.984254
1.54045
2.26983
3.09642
3.94286
4.77554
5.55088
6.24922
6.87032
7.42283
7.92155
8.38758
8.84167
9.29805
9.75463
10.1932
10.475
10.3755
9.35393
7.17011
4.31569
1.82016
0.501719
0.101047
0.0197505
0.00438962
0.00104215
0.000244932
5.55106e-05
1.20716e-05
2.51935e-06
5.05014e-07
9.72083e-08
1.79551e-08
3.17795e-09
5.38224e-10
8.70939e-11
1.34579e-11
1.98334e-12
2.78281e-13
3.71326e-14
4.60856e-15
0.00278454
0.0106976
0.0224981
0.040017
0.0660819
0.105284
0.165086
0.256981
0.397822
0.604498
0.877308
1.21681
1.61361
2.05788
2.53913
3.04682
3.5736
4.11448
4.66811
5.23476
5.81393
6.39567
6.95175
7.42042
7.64812
7.44944
6.47159
4.72497
2.64177
1.02691
0.269443
0.0567628
0.012379
0.00298313
0.000738049
0.000177934
4.11746e-05
9.12643e-06
1.93866e-06
3.95009e-07
7.71803e-08
1.44471e-08
2.58796e-09
4.43171e-10
7.24435e-11
1.12987e-11
1.67917e-12
2.37438e-13
3.19131e-14
3.98654e-15
0.00173732
0.00642259
0.0130305
0.0224116
0.0358947
0.055625
0.0850747
0.129666
0.197572
0.296634
0.42814
0.593671
0.793434
1.02868
1.30101
1.61151
1.96071
2.34853
2.77383
3.23258
3.71565
4.20155
4.64813
4.97562
5.06877
4.78626
3.96236
2.69964
1.37897
0.489131
0.125735
0.0290554
0.00714855
0.00185505
0.000477158
0.000118135
2.79665e-05
6.33017e-06
1.37105e-06
2.84419e-07
5.64894e-08
1.07293e-08
1.94722e-09
3.37343e-10
5.57508e-11
8.78101e-12
1.31628e-12
1.87606e-13
2.54024e-14
3.19401e-15
0.00104408
0.00378088
0.0075221
0.0126956
0.0199798
0.0304823
0.0460196
0.0694663
0.10537
0.158696
0.23116
0.32405
0.438124
0.574767
0.736206
0.92471
1.14254
1.39089
1.66911
1.97271
2.29062
2.5994
2.85874
3.00205
2.96935
2.672
2.06517
1.27547
0.584328
0.192453
0.0516816
0.013631
0.00375326
0.00103593
0.000276208
7.02885e-05
1.70517e-05
3.94812e-06
8.73255e-07
1.84656e-07
3.73187e-08
7.19891e-09
1.32462e-09
2.32309e-10
3.88258e-11
6.1764e-12
9.34047e-13
1.34192e-13
1.83029e-14
2.31579e-15
0.000598361
0.00214446
0.00422239
0.00704719
0.0109589
0.0165154
0.0246488
0.0368804
0.0556588
0.0842011
0.124696
0.178335
0.245621
0.327163
0.42381
0.536608
0.666251
0.812533
0.973402
1.14364
1.31251
1.46113
1.56037
1.57617
1.4843
1.23769
0.862263
0.473743
0.1959
0.0642495
0.019361
0.00584631
0.00175547
0.000508421
0.000140099
3.66586e-05
9.1225e-06
2.16272e-06
4.88952e-07
1.05476e-07
2.16981e-08
4.25173e-09
7.93282e-10
1.40868e-10
2.38061e-11
3.82392e-12
5.83189e-13
8.44138e-14
1.15922e-14
1.47482e-15
0.000324876
0.00116349
0.00228604
0.00379607
0.00585098
0.00870638
0.0127937
0.018842
0.0280166
0.0421141
0.0629759
0.0916912
0.128918
0.174656
0.228785
0.291065
0.360851
0.436696
0.515782
0.59316
0.660829
0.707222
0.717995
0.687818
0.594276
0.442463
0.27348
0.134856
0.0542957
0.0194949
0.00671139
0.0022374
0.00071137
0.000213801
6.07103e-05
1.63241e-05
4.16612e-06
1.01102e-06
2.33554e-07
5.13596e-08
1.07448e-08
2.13685e-09
4.03981e-10
7.25919e-11
1.23908e-11
2.00689e-12
3.083e-13
4.49033e-14
6.20237e-15
7.92205e-16
0.000164888
0.000603817
0.00120458
0.00201288
0.00309067
0.00453504
0.00651028
0.00930743
0.0133948
0.0194693
0.0285339
0.0415095
0.0587768
0.080459
0.106182
0.13522
0.16644
0.198265
0.228405
0.253686
0.269918
0.273138
0.261063
0.227327
0.175194
0.116632
0.0658856
0.0318789
0.0137761
0.00552311
0.00207765
0.000731449
0.000240988
7.4533e-05
2.17242e-05
5.98621e-06
1.56291e-06
3.87253e-07
9.11543e-08
2.03793e-08
4.32461e-09
8.70669e-10
1.66369e-10
3.01634e-11
5.18462e-12
8.44409e-13
1.30314e-13
1.90634e-14
2.64355e-15
3.3771e-16
7.45045e-05
0.000302121
0.000641105
0.00110331
0.00170079
0.00245367
0.00338761
0.00461591
0.00626979
0.00855763
0.0117696
0.0162331
0.0223248
0.0300063
0.0390351
0.0489806
0.0591305
0.0685558
0.0761414
0.0807677
0.0814776
0.0775915
0.068182
0.0540899
0.0384774
0.0243485
0.013747
0.00699409
0.00323725
0.00137095
0.000534005
0.000192604
6.47824e-05
2.04348e-05
6.0698e-06
1.70237e-06
4.51709e-07
1.13533e-07
2.70492e-08
6.10837e-09
1.30683e-09
2.64848e-10
5.08554e-11
9.25023e-12
1.59326e-12
2.59816e-13
4.00995e-14
5.8617e-15
8.11917e-16
1.02988e-16
2.64502e-05
0.00015999
0.000396154
0.000710717
0.00107492
0.00148448
0.00193465
0.00243223
0.00301713
0.00375451
0.00469073
0.0058971
0.00742843
0.00928619
0.0114328
0.0136461
0.015752
0.0174969
0.0185151
0.0186292
0.0180009
0.0163751
0.0136821
0.0104619
0.00732389
0.00458472
0.00259242
0.00133082
0.000618999
0.000262699
0.000102345
3.69989e-05
1.25004e-05
3.96449e-06
1.18346e-06
3.33217e-07
8.86713e-08
2.23252e-08
5.31943e-09
1.19921e-09
2.55681e-10
5.15883e-11
9.85613e-12
1.78243e-12
3.0486e-13
4.93356e-14
7.55363e-15
1.0948e-15
1.50364e-16
1.86842e-17
9.59222e-06
0.000162472
0.00034606
0.000531022
0.00071947
0.000906125
0.00107308
0.00123582
0.00140875
0.0015887
0.00179562
0.00204911
0.00236554
0.00274738
0.00316762
0.00358963
0.003954
0.00420276
0.00428915
0.00417854
0.00385805
0.00333286
0.00265813
0.00194607
0.00130578
0.000802369
0.000448357
0.000227911
0.000106086
4.55986e-05
1.82423e-05
6.83374e-06
2.42999e-06
8.14178e-07
2.34339e-07
5.65794e-08
1.34105e-08
3.51435e-09
9.15178e-10
1.95793e-10
3.44824e-11
6.10682e-12
1.27e-12
2.63041e-13
3.97183e-14
5.68285e-15
8.03024e-16
1.10659e-16
1.53494e-17
1.81977e-18
)
;

boundaryField
{
    AXIS
    {
        type            empty;
    }
    OUTLET
    {
        type            zeroGradient;
    }
    COFLOW
    {
        type            calculated;
        value           uniform 0;
    }
    PILOT
    {
        type            calculated;
        value           uniform 0;
    }
    FUEL
    {
        type            calculated;
        value           uniform 0;
    }
    WALL
    {
        type            zeroGradient;
    }
    front
    {
        type            wedge;
    }
    back
    {
        type            wedge;
    }
}


// ************************************************************************* //
