/*--------------------------------*- C++ -*----------------------------------*\
| =========                 |                                                 |
| \\      /  F ield         | OpenFOAM: The Open Source CFD Toolbox           |
|  \\    /   O peration     | Version:  2.4.x                                 |
|   \\  /    A nd           | Web:      www.OpenFOAM.org                      |
|    \\/     M anipulation  |                                                 |
\*---------------------------------------------------------------------------*/
FoamFile
{
    version     2.0;
    format      ascii;
    class       volScalarField;
    location    "0.04";
    object      epsilon;
}
// * * * * * * * * * * * * * * * * * * * * * * * * * * * * * * * * * * * * * //

dimensions      [0 2 -3 0 0 0 0];

internalField   nonuniform List<scalar> 
1250
(
76.2051
136.041
196.272
280.402
388.839
512.381
636.837
757.316
850.659
926.343
985.594
1021.82
1047.71
1051.12
1047.31
1031.5
1008.84
979.3
945.429
907.689
867.321
828.013
787.285
751.719
750.267
794.45
968.943
1591.5
1991.06
1742.51
876.913
254.872
66.2585
24.7163
15.9435
14.0514
13.6282
13.529
13.5061
13.4992
13.497
13.4981
13.4972
13.4943
13.4871
13.4788
13.478
13.4762
13.4694
13.4677
80.2038
146.384
221.136
325.907
455.67
596.362
735.414
854.7
947.235
1015.6
1066.74
1098.3
1112.81
1110.62
1099.24
1075.2
1046.03
1012.13
973.304
931.613
887.755
845.377
802.886
763.489
759.663
803.782
981.314
1601.33
1986.65
1735.87
870.529
253.128
65.885
24.637
15.9243
14.0448
13.6243
13.5257
13.5028
13.496
13.4939
13.495
13.494
13.491
13.484
13.4757
13.4749
13.473
13.4661
13.4648
88.0727
177.13
301.015
469.338
658.044
838.244
990.647
1104.48
1182.15
1230.51
1260.9
1269.45
1262.85
1243.16
1210.08
1170.11
1127.84
1082.15
1032.97
982.566
930.921
881.963
834.823
788.753
779.564
823.717
1002.17
1622.93
1975.91
1717.81
852.199
247.935
64.8121
24.4213
15.8761
14.0302
13.6166
13.5194
13.4968
13.4901
13.4882
13.4894
13.4885
13.4854
13.4782
13.4701
13.4695
13.4674
13.4605
13.4594
104.916
271.906
545.946
873.559
1157.28
1368.9
1503.6
1579.56
1604.14
1599.24
1582.48
1547.18
1498.44
1442.05
1378.4
1313.09
1249.75
1185.74
1120.83
1057.39
994.31
935.804
881.533
826.311
810.652
855.423
1037.02
1659.33
1960.34
1687.45
821.661
239.06
62.9736
24.0581
15.7978
14.0079
13.6056
13.5107
13.4885
13.482
13.4806
13.4819
13.4811
13.4781
13.4706
13.4627
13.4623
13.46
13.4531
13.4523
200.41
697.446
1386.32
1974.25
2269.26
2391.8
2384.3
2335.25
2233.34
2126.25
2023.85
1917.14
1807.77
1699.55
1593.12
1494.04
1403.07
1315.22
1230.38
1150.52
1073.15
1002.95
939.487
873.397
851.109
897.561
1084.59
1706.01
1936.4
1641.96
780.837
226.741
60.4153
23.5565
15.6909
13.978
13.5913
13.4996
13.4779
13.4718
13.4709
13.4722
13.4715
13.4685
13.4606
13.4533
13.453
13.4504
13.4436
13.443
1117.28
2834.07
3977.2
4109.97
4032.87
3834.99
3539.51
3254.09
2982.76
2744.65
2533.59
2336.29
2152.27
1983.77
1830.26
1694.05
1572.06
1457.79
1351.12
1253.3
1160.4
1077.8
1003.9
926.59
899.178
948.998
1145.18
1751.17
1901.36
1581.33
730.659
211.547
57.2526
22.9371
15.5591
13.941
13.5735
13.4857
13.4647
13.4594
13.459
13.4602
13.4594
13.4563
13.4481
13.4413
13.4412
13.4382
13.4316
13.4313
1210.05
4165.03
5455.74
5515.8
5305.94
4973.66
4492.88
4043.85
3642.23
3297.63
2992.9
2716.33
2468.98
2249.57
2054
1884.09
1733.63
1594.99
1468.19
1353.66
1246.28
1152.49
1068.16
981.21
951.873
1007.3
1221.55
1782.78
1854.27
1505.29
673.089
194.262
53.6482
22.2287
15.4074
13.8976
13.552
13.4688
13.4487
13.4446
13.4445
13.4452
13.4444
13.441
13.4327
13.4265
13.4265
13.4232
13.4167
13.4165
497.723
2394.62
4475.53
5236.75
5311.62
5154.08
4794.07
4378.62
3979.06
3614.78
3276.1
2965.2
2687.23
2439.84
2220.88
2030.51
1860.79
1705.21
1564.15
1437.15
1319.25
1217.76
1124.83
1032.07
1005.43
1069.24
1306.02
1794.56
1794.94
1413.45
610.973
175.753
49.7945
21.4657
15.2416
13.8485
13.5268
13.4484
13.4297
13.4269
13.4269
13.427
13.426
13.4224
13.4139
13.408
13.4081
13.4048
13.3985
13.3984
249.864
1018.79
2491.32
3701.47
4303.56
4484.77
4409.44
4186.58
3899.51
3599.44
3299.04
3012.98
2749.47
2508.8
2293.09
2103.15
1929.56
1768.29
1622.48
1489.93
1368.52
1264.56
1166.43
1074.2
1056.81
1129.34
1388.12
1778
1723.86
1306.45
547.288
156.992
45.8794
20.6827
15.0678
13.7947
13.4976
13.4244
13.4071
13.4048
13.4048
13.405
13.4038
13.4
13.3913
13.3857
13.3859
13.3826
13.3764
13.3764
149.312
365.012
963.798
1895.44
2709.19
3216.36
3462.43
3503.25
3439.29
3283.74
3084.5
2867.35
2653.37
2448.71
2260.32
2088.6
1924.81
1770.49
1630.93
1502.35
1385.14
1284.72
1187.33
1105.34
1101.17
1181.47
1451.62
1739.43
1641.59
1188.14
483.191
138.778
42.0756
19.9114
14.8914
13.7367
13.4641
13.396
13.3804
13.3787
13.3781
13.378
13.3772
13.3733
13.3645
13.3591
13.3593
13.356
13.35
13.35
32.0703
110.235
305.607
710.229
1302.47
1872.05
2291.55
2543.83
2665.24
2664.29
2616.25
2510.53
2384.48
2248.51
2112.55
1977.42
1839.86
1707.55
1584.86
1469.88
1364.09
1272.71
1183.71
1122.24
1130.92
1219.95
1485.74
1674.6
1544.99
1058
419.623
121.304
38.4156
19.1547
14.712
13.6735
13.4252
13.3623
13.3482
13.347
13.3462
13.3458
13.3449
13.3411
13.3323
13.3269
13.3272
13.324
13.318
13.318
17.165
42.8753
101.831
221.734
452.313
806.651
1190.23
1515.14
1751.4
1892.24
1964.07
1969.73
1947
1892.77
1819.21
1734.2
1641.52
1549.29
1459.28
1371.98
1290.48
1218.33
1150.78
1116.42
1140.27
1239.03
1481.4
1582.31
1426.07
915.091
354.802
103.93
34.7417
18.3771
14.5206
13.6022
13.3794
13.322
13.3093
13.3086
13.3078
13.3073
13.3063
13.3025
13.2936
13.2882
13.2886
13.2855
13.2795
13.2794
13.2083
23.596
42.5225
76.9244
140.971
254.885
443.606
674.626
902.043
1093.23
1235.95
1328.86
1383.75
1404.21
1398.5
1377.21
1338.87
1294.63
1246.56
1197.17
1150.38
1108.69
1075.06
1074.7
1114.01
1235.6
1431.71
1457.09
1272
762.231
288.695
86.4395
30.9884
17.5589
14.3129
13.5227
13.3276
13.2763
13.2649
13.2644
13.2638
13.2635
13.2624
13.2585
13.2495
13.2442
13.2446
13.2416
13.2355
13.2354
11.6362
16.5429
24.1589
35.6309
54.0619
85.1882
137.948
221.533
341.535
477.073
608.373
722.289
813.451
880.62
925.808
953.74
967.127
970.698
968.218
962.051
955.746
953.912
959.248
986.322
1056.05
1193.56
1321.07
1298.04
1080.33
603.746
223.589
69.4805
27.2631
16.7162
14.0929
13.4375
13.2723
13.2277
13.2175
13.2171
13.2167
13.2166
13.2155
13.2115
13.2025
13.1972
13.1978
13.1949
13.1886
13.1885
10.8933
13.4749
17.1523
22.1408
29.0495
39.038
54.5541
78.7278
115.367
168.722
236.842
311.325
385.118
453.538
514.077
566.022
610.154
647.951
680.886
711.266
741.706
775.408
816.329
875.963
969.045
1091.03
1157.36
1101.56
858.052
449.329
163.178
53.9267
23.7079
15.8819
13.8686
13.3502
13.2161
13.1789
13.1695
13.169
13.169
13.1691
13.1679
13.164
13.1547
13.1498
13.1506
13.1478
13.1413
13.141
10.5162
11.9935
14.0481
16.7391
20.2547
24.9377
31.412
40.5729
53.7381
72.7468
99.1138
133.22
173.127
217.134
263.516
310.877
358.481
406.087
453.901
502.819
554.224
610.155
673.585
751.581
847.067
936.335
954.117
874.314
626.367
307.202
111.344
40.5599
20.5232
15.1028
13.652
13.2652
13.1619
13.1322
13.1229
13.1224
13.1227
13.1224
13.1215
13.1179
13.1084
13.1044
13.1054
13.1027
13.0957
13.0952
10.321
11.2514
12.5688
14.3166
16.6057
19.6259
23.6821
29.1969
36.6855
46.929
60.5263
77.932
99.3117
124.794
154.383
187.943
225.369
266.603
311.824
361.367
415.942
476.478
544.038
620.059
696.778
745.024
732.17
632.602
410.006
189.822
71.2976
30.0597
17.8916
14.4262
13.4563
13.1869
13.112
13.0897
13.0805
13.0795
13.0807
13.0796
13.0772
13.0735
13.0652
13.0631
13.0642
13.0614
13.0536
13.0528
10.2228
10.8841
11.8558
13.1872
14.9833
17.408
20.7024
25.2033
31.2927
39.2903
49.3219
61.4485
75.8772
92.979
113.164
136.825
164.319
196.036
232.383
273.681
320.267
372.129
428.31
485.521
531.122
542.933
510.558
402.137
237.429
106.456
44.1743
22.638
15.9098
13.8873
13.2926
13.1191
13.068
13.0521
13.044
13.0425
13.044
13.0431
13.0399
13.033
13.028
13.0284
13.0284
13.0246
13.016
13.0154
10.1752
10.7065
11.5119
12.6439
14.2073
16.359
19.3243
23.3975
28.9073
36.0537
44.7491
54.8568
66.4677
79.787
95.1722
112.929
133.468
157.132
184.225
214.862
248.922
285.403
321.994
353.14
367.59
358.192
311.889
219.219
120.535
56.0765
27.9986
17.9151
14.5626
13.4971
13.1663
13.0633
13.0302
13.0188
13.0119
13.0103
13.0115
13.0103
13.006
12.9972
12.9945
12.9963
12.9963
12.992
12.983
12.9821
10.1527
10.6205
11.3355
12.3437
13.7383
15.6574
18.2958
21.9029
26.7342
32.9611
40.5235
49.2758
59.1048
70.0831
82.3209
95.9805
111.216
128.121
146.68
166.671
187.418
207.414
224.066
232.139
228.318
206.746
160.522
103.469
56.6191
30.627
19.4656
15.2338
13.7421
13.2404
13.0746
13.0183
12.9966
12.987
12.9807
12.9798
12.9807
12.9786
12.9732
12.9651
12.9642
12.9664
12.9659
12.961
12.9521
12.9509
10.1498
10.603
11.271
12.1801
13.3961
15.019
17.1904
20.0915
23.9135
28.8081
34.8152
41.8603
49.8074
58.5212
67.913
77.927
88.4621
99.3482
110.317
120.886
130.209
136.993
139.13
135.749
123.224
100.242
71.8703
45.7448
28.3979
19.4157
15.4576
13.881
13.2932
13.082
13.0065
12.9779
12.9634
12.954
12.9487
12.9467
12.9447
12.9404
12.9363
12.9339
12.9339
12.9339
12.9321
12.9261
12.9204
12.9192
10.2036
10.7723
11.4952
12.3634
13.404
14.6713
16.2482
18.2581
20.8187
24.0424
28.0174
32.7668
38.2072
44.1804
50.4937
56.9208
63.1448
68.8886
73.8167
77.491
79.3104
78.9366
75.5249
67.78
56.6919
43.8298
31.9117
23.0562
17.7303
15.0115
13.7809
13.2657
13.0588
12.9764
12.9438
12.9301
12.9203
12.9115
12.9068
12.9052
12.9035
12.8979
12.8952
12.8958
12.894
12.8891
12.8838
12.8821
12.8824
12.881
10.5742
11.7727
12.9018
13.8934
14.7847
15.6238
16.4139
17.4143
18.6344
20.1316
21.9818
24.2349
26.889
29.8617
32.9656
35.9633
38.6147
40.6775
41.9258
42.2065
41.5764
39.3729
35.7046
31.0935
26.1139
21.5211
17.9367
15.5555
14.1863
13.4839
13.1492
12.9953
12.9244
12.8915
12.8764
12.8686
12.8618
12.8543
12.8487
12.8463
12.8447
12.8415
12.8387
12.8377
12.8363
12.8327
12.828
12.8258
12.8253
12.8236
14.0152
18.6789
20.8538
21.6994
21.5904
21.1165
20.4364
19.7076
19.1517
18.8972
18.844
19.0192
19.4204
20.009
20.6932
21.341
21.905
22.2705
22.2495
21.892
21.168
20.1076
18.8283
17.4949
16.2816
15.0457
14.1145
13.5822
13.2903
13.1496
13.0503
12.988
12.9501
12.9262
12.9103
12.8994
12.8918
12.8865
12.8825
12.8788
12.8756
12.8731
12.8716
12.8713
12.8706
12.8679
12.8647
12.863
12.8627
12.8618
148.928
119.708
90.3995
70.6869
56.7815
47.0787
38.0914
31.7654
27.9656
24.9841
22.7328
21.1256
20.0759
19.4776
19.1915
19.1093
19.1181
19.1339
19.1016
18.9746
18.7319
18.3947
17.9986
17.5857
17.1979
16.8617
16.5788
16.3517
16.1792
16.0539
15.9656
15.903
15.8574
15.823
15.7971
15.7777
15.7629
15.7523
15.7458
15.7419
15.7412
15.7428
15.7449
15.747
15.7483
15.7476
15.7477
15.7491
15.7497
15.7487
)
;

boundaryField
{
    AXIS
    {
        type            empty;
    }
    OUTLET
    {
        type            zeroGradient;
    }
    COFLOW
    {
        type            fixedValue;
        value           uniform 10;
    }
    PILOT
    {
        type            fixedValue;
        value           uniform 10;
    }
    FUEL
    {
        type            fixedValue;
        value           uniform 50;
    }
    WALL
    {
        type            compressible::epsilonWallFunction;
        Cmu             0.09;
        kappa           0.41;
        E               9.8;
        value           nonuniform List<scalar> 
50
(
148.928
119.708
90.3995
70.6869
56.7815
47.0787
38.0914
31.7654
27.9656
24.9841
22.7328
21.1256
20.0759
19.4776
19.1915
19.1093
19.1181
19.1339
19.1016
18.9746
18.7319
18.3947
17.9986
17.5857
17.1979
16.8617
16.5788
16.3517
16.1792
16.0539
15.9656
15.903
15.8574
15.823
15.7971
15.7777
15.7629
15.7523
15.7458
15.7419
15.7412
15.7428
15.7449
15.747
15.7483
15.7476
15.7477
15.7491
15.7497
15.7487
)
;
    }
    front
    {
        type            wedge;
    }
    back
    {
        type            wedge;
    }
}


// ************************************************************************* //
