/*--------------------------------*- C++ -*----------------------------------*\
| =========                 |                                                 |
| \\      /  F ield         | OpenFOAM: The Open Source CFD Toolbox           |
|  \\    /   O peration     | Version:  2.4.x                                 |
|   \\  /    A nd           | Web:      www.OpenFOAM.org                      |
|    \\/     M anipulation  |                                                 |
\*---------------------------------------------------------------------------*/
FoamFile
{
    version     2.0;
    format      ascii;
    class       volScalarField;
    location    "0.04";
    object      k;
}
// * * * * * * * * * * * * * * * * * * * * * * * * * * * * * * * * * * * * * //

dimensions      [0 2 -2 0 0 0 0];

internalField   nonuniform List<scalar> 
1250
(
5.55656
5.94434
5.90623
5.98236
6.20721
6.53082
6.83401
7.09772
7.21907
7.28505
7.29472
7.26653
7.20697
7.08546
6.94672
6.76625
6.5992
6.42008
6.23669
6.03499
5.84709
5.66117
5.43967
5.36318
5.43699
5.76782
6.99013
11.0769
13.2617
11.8803
6.98414
2.66713
1.06789
0.650441
0.546063
0.519339
0.512193
0.510137
0.509503
0.509308
0.509236
0.509112
0.509036
0.509037
0.509038
0.509071
0.509035
0.508823
0.508541
0.508479
5.60951
5.94131
5.95968
6.11389
6.41361
6.78089
7.12276
7.35342
7.46481
7.50432
7.49627
7.45668
7.36677
7.23343
7.06795
6.88053
6.69634
6.50851
6.31332
6.1029
5.90743
5.71556
5.48961
5.40464
5.47664
5.81202
7.05981
11.1432
13.2457
11.8485
6.94454
2.6538
1.06461
0.649622
0.545805
0.519217
0.512105
0.510058
0.509428
0.509234
0.509161
0.509035
0.50896
0.50896
0.508961
0.508996
0.50896
0.508743
0.508467
0.508406
5.61197
5.92258
6.14468
6.53997
7.03927
7.48016
7.80975
7.97687
8.03892
8.02304
7.96829
7.86549
7.72079
7.54178
7.33489
7.11669
6.90558
6.69239
6.47472
6.24569
6.03365
5.82897
5.5912
5.49347
5.55937
5.90913
7.19317
11.2919
13.2053
11.7623
6.83463
2.61513
1.05529
0.647398
0.545166
0.518948
0.511925
0.509902
0.509282
0.509091
0.509017
0.508888
0.508815
0.508815
0.508816
0.508852
0.508818
0.508598
0.508325
0.508266
5.42671
6.03825
6.80793
7.70881
8.43603
8.85494
9.08131
9.09391
9.02652
8.87406
8.69899
8.4949
8.25938
8.00461
7.73282
7.46443
7.21154
6.96044
6.70981
6.45413
6.21899
5.9954
5.74159
5.62854
5.67742
6.06637
7.43445
11.5196
13.1427
11.6149
6.65165
2.54942
1.03934
0.643657
0.544138
0.518542
0.511667
0.509684
0.509078
0.508893
0.508817
0.508684
0.508614
0.508614
0.508616
0.508654
0.508621
0.5084
0.508129
0.508073
5.5857
7.0602
9.1067
10.5602
11.1183
11.1603
11.0351
10.7291
10.3555
9.99073
9.64766
9.29715
8.93938
8.5814
8.22491
7.89278
7.58757
7.28939
6.99917
6.71163
6.44925
6.20233
5.93082
5.80502
5.84901
6.27895
7.78149
11.7943
13.0406
11.3932
6.40423
2.45821
1.01707
0.638465
0.542731
0.517998
0.511327
0.509399
0.508814
0.508636
0.508559
0.50842
0.508354
0.508354
0.508356
0.508398
0.508366
0.508144
0.507876
0.507822
9.02072
12.9144
14.9942
14.9254
14.6106
13.9409
13.2114
12.4897
11.8072
11.2093
10.6717
10.1551
9.65865
9.18926
8.7492
8.35258
7.99142
7.64436
7.31322
6.99352
6.70385
6.43291
6.14661
6.01723
6.06615
6.55164
8.22724
12.0522
12.885
11.0904
6.10055
2.34495
0.989308
0.632
0.540983
0.517323
0.510904
0.509044
0.508483
0.508314
0.508234
0.50809
0.508029
0.508029
0.508032
0.508076
0.508046
0.507825
0.507558
0.507505
7.14779
14.719
17.126
17.0814
16.6603
15.7386
14.7625
13.8165
12.9493
12.1962
11.5131
10.8712
10.2766
9.72886
9.22253
8.77293
8.36481
7.9769
7.61183
7.26639
6.95476
6.66445
6.37281
6.2543
6.31935
6.88138
8.78847
12.2376
12.6688
10.7083
5.74618
2.21456
0.957329
0.624515
0.538945
0.516521
0.510395
0.508612
0.508079
0.507919
0.507838
0.507688
0.507632
0.507633
0.507636
0.507684
0.507656
0.507436
0.507169
0.507118
3.15422
9.91959
14.3793
15.8932
16.0895
15.6808
14.9926
14.175
13.3743
12.6393
11.9345
11.2645
10.6434
10.0684
9.54243
9.07354
8.64077
8.23112
7.84837
7.49026
7.169
6.87183
6.59286
6.50171
6.59729
7.25796
9.40201
12.3299
12.3885
10.2444
5.35371
2.07286
0.922691
0.616337
0.536683
0.515604
0.509797
0.508099
0.507596
0.507445
0.507362
0.507208
0.507158
0.507158
0.507162
0.507213
0.507187
0.506969
0.506702
0.506652
2.21684
5.44884
9.28123
12.0116
13.4476
13.9092
13.8274
13.4797
12.9477
12.3901
11.7933
11.2026
10.6381
10.1056
9.61733
9.17803
8.75849
8.3541
7.97859
7.62766
7.31694
7.0325
6.79031
6.74139
6.89398
7.68213
9.97183
12.3037
12.0462
9.69545
4.94277
1.92713
0.886937
0.607798
0.534261
0.51458
0.509106
0.507497
0.507024
0.506882
0.506799
0.506641
0.506596
0.506597
0.506602
0.506656
0.506631
0.506414
0.506148
0.506098
2.01319
2.74037
4.67944
7.3015
9.42793
10.7442
11.4133
11.6652
11.6122
11.412
11.0593
10.6661
10.2499
9.82841
9.43108
9.05848
8.68205
8.31314
7.9705
7.65236
7.37428
7.12786
6.95275
6.95767
7.2
8.14494
10.4219
12.1613
11.6443
9.06855
4.5256
1.78272
0.851568
0.599217
0.531745
0.513459
0.50832
0.506799
0.506354
0.506222
0.506139
0.505981
0.505939
0.50594
0.505945
0.506001
0.505977
0.505763
0.505496
0.505446
1.15427
1.52369
2.23451
3.64273
5.49785
7.1539
8.35153
9.13571
9.56107
9.73533
9.70953
9.6014
9.39942
9.15963
8.91369
8.65131
8.36228
8.07323
7.80128
7.54692
7.32359
7.14133
7.06197
7.12883
7.49407
8.60036
10.6975
11.898
11.1649
8.36109
4.10066
1.64058
0.816735
0.590589
0.52911
0.512215
0.507412
0.505979
0.505561
0.505438
0.505357
0.5052
0.50516
0.505162
0.505167
0.505223
0.5052
0.504989
0.504721
0.50467
1.03997
1.16368
1.36354
1.78869
2.66727
3.90149
5.15285
6.20915
6.9892
7.52968
7.84604
8.02477
8.07527
8.0539
7.98719
7.86226
7.70815
7.54801
7.39126
7.24546
7.12313
7.05162
7.07652
7.24694
7.75911
8.99576
10.7659
11.4707
10.5605
7.55297
3.65028
1.49443
0.780643
0.581421
0.526208
0.510787
0.506345
0.505004
0.504612
0.504499
0.504423
0.504271
0.50423
0.504231
0.504236
0.504292
0.50427
0.504062
0.503793
0.503741
1.01188
1.05018
1.09635
1.19323
1.42039
1.86808
2.6042
3.47296
4.31022
5.03402
5.59208
6.0164
6.31133
6.5096
6.63529
6.6946
6.71485
6.71515
6.70882
6.70785
6.7269
6.79733
6.96308
7.28436
7.9582
9.21809
10.5969
10.8573
9.75531
6.64265
3.16707
1.34043
0.742129
0.571346
0.522941
0.509157
0.505125
0.503888
0.503521
0.503419
0.503351
0.503209
0.503162
0.503163
0.503168
0.503221
0.503199
0.502996
0.502725
0.502673
1.00082
1.00568
1.00989
1.02227
1.06242
1.16123
1.36362
1.7203
2.23538
2.81957
3.39226
3.91292
4.35374
4.7163
5.01287
5.25024
5.4483
5.62319
5.78668
5.95475
6.1461
6.39063
6.72373
7.21684
8.01094
9.17145
10.1408
10.0383
8.70888
5.6359
2.66008
1.18268
0.701766
0.560406
0.519325
0.50736
0.503793
0.502672
0.502331
0.502238
0.502181
0.502052
0.501996
0.501997
0.502001
0.502049
0.502028
0.50183
0.50156
0.501506
0.995739
0.987626
0.978148
0.969155
0.965955
0.9766
1.01465
1.10087
1.25826
1.51515
1.87298
2.27798
2.69001
3.08743
3.46345
3.81368
4.14514
4.46574
4.78352
5.11193
5.46873
5.87841
6.3681
7.00143
7.84339
8.80038
9.31697
8.96909
7.41589
4.5724
2.15385
1.02857
0.660569
0.548865
0.515435
0.50544
0.502392
0.5014
0.501081
0.500991
0.50094
0.500822
0.500763
0.500764
0.500768
0.500812
0.500791
0.500601
0.500334
0.500279
0.993511
0.980335
0.966262
0.951577
0.937951
0.928554
0.929326
0.946613
0.990631
1.08109
1.23682
1.46969
1.75654
2.07321
2.41339
2.76995
3.14018
3.52448
3.92601
4.35231
4.81466
5.32852
5.90975
6.59117
7.36451
8.03737
8.18978
7.63599
5.94596
3.50352
1.67969
0.884958
0.620588
0.537227
0.511404
0.503448
0.500949
0.500098
0.499795
0.499691
0.499627
0.499516
0.499475
0.499476
0.49948
0.499525
0.499506
0.499327
0.499065
0.499012
0.992655
0.977833
0.962504
0.946742
0.931238
0.9177
0.909491
0.911232
0.926388
0.971807
1.06984
1.21701
1.40873
1.64099
1.91087
2.21534
2.55268
2.92233
3.32599
3.76643
4.24892
4.77859
5.35581
5.97711
6.57167
6.93315
6.83148
6.0851
4.41848
2.51367
1.27307
0.760748
0.584296
0.526119
0.507383
0.501406
0.499456
0.498751
0.498463
0.498325
0.498225
0.498125
0.498111
0.498112
0.498116
0.498161
0.498146
0.49798
0.49773
0.497681
0.992487
0.977442
0.962165
0.946769
0.931727
0.918248
0.908683
0.907511
0.917817
0.952943
1.03042
1.14563
1.29677
1.48275
1.70281
1.95665
2.24432
2.56672
2.9253
3.32045
3.75228
4.21663
4.69856
5.16558
5.51857
5.59678
5.3136
4.4299
3.02066
1.70776
0.963124
0.662399
0.553675
0.516096
0.503458
0.499254
0.497809
0.497245
0.496973
0.4968
0.496645
0.496568
0.496568
0.496568
0.49657
0.4966
0.496589
0.496436
0.496206
0.496164
0.99257
0.977732
0.962795
0.947918
0.933529
0.920599
0.911097
0.908859
0.917611
0.947947
1.01425
1.1128
1.24262
1.40144
1.58829
1.80185
2.04231
2.30957
2.60336
2.92133
3.25891
3.6034
3.93065
4.19322
4.30024
4.1949
3.75816
2.90685
1.90376
1.13904
0.751374
0.590821
0.529597
0.507341
0.499476
0.496712
0.495691
0.495251
0.494994
0.494788
0.494577
0.494497
0.494497
0.494498
0.494497
0.494509
0.494495
0.494349
0.494154
0.494124
0.992609
0.977768
0.962765
0.947762
0.933149
0.919751
0.909182
0.904645
0.909392
0.931479
0.983193
1.06555
1.17547
1.31047
1.46731
1.64339
1.83659
2.04447
2.26389
2.48976
2.71288
2.91644
3.07561
3.14218
3.08799
2.8512
2.37102
1.74425
1.16661
0.800266
0.620369
0.54257
0.511295
0.499266
0.494727
0.493004
0.492303
0.491958
0.491709
0.491467
0.491211
0.491111
0.491111
0.491113
0.491078
0.491034
0.491012
0.490893
0.490765
0.490745
0.992388
0.976815
0.960742
0.944302
0.927833
0.91198
0.897952
0.88795
0.885761
0.894714
0.924629
0.983059
1.06671
1.17211
1.29445
1.42914
1.57143
1.7164
1.85871
1.99118
2.10326
2.18075
2.20108
2.15515
2.00312
1.72989
1.37937
1.02907
0.77057
0.619737
0.544505
0.510461
0.495946
0.4899
0.487372
0.486292
0.48579
0.485497
0.485232
0.48495
0.484681
0.484588
0.484596
0.484552
0.484423
0.484341
0.484288
0.484251
0.48426
0.484224
0.991761
0.974193
0.955284
0.935206
0.914332
0.893229
0.872792
0.8545
0.840797
0.835748
0.841933
0.866221
0.913999
0.980195
1.06033
1.1484
1.2371
1.32052
1.39269
1.44695
1.47534
1.47221
1.42947
1.32873
1.17931
0.998969
0.821283
0.677341
0.581256
0.5261
0.497762
0.484167
0.477806
0.474757
0.473245
0.472479
0.472055
0.471761
0.471459
0.47115
0.470915
0.470796
0.470741
0.470671
0.470528
0.470422
0.470421
0.470431
0.47042
0.470359
0.990674
0.968715
0.943233
0.915135
0.885438
0.854954
0.824637
0.795542
0.769152
0.747729
0.734212
0.732075
0.740052
0.76341
0.798247
0.837689
0.8764
0.909121
0.931251
0.938944
0.93253
0.904629
0.852383
0.78322
0.704671
0.627605
0.562273
0.514197
0.483047
0.4648
0.45476
0.449352
0.446344
0.444544
0.443433
0.442758
0.442318
0.441989
0.441672
0.441376
0.441209
0.441132
0.441048
0.440958
0.440823
0.44061
0.440588
0.440628
0.440609
0.440555
0.989114
0.954398
0.908195
0.85907
0.81151
0.764591
0.719842
0.678314
0.641051
0.608698
0.582397
0.563372
0.552666
0.550901
0.553746
0.561296
0.569379
0.574756
0.575749
0.571963
0.559673
0.539847
0.514955
0.487468
0.460543
0.436948
0.418011
0.404067
0.394541
0.388355
0.384425
0.381912
0.380214
0.378967
0.378067
0.377453
0.376988
0.376647
0.376413
0.376161
0.376081
0.376092
0.37603
0.37591
0.375829
0.375605
0.375504
0.375546
0.375523
0.375425
0.975813
0.843592
0.699565
0.59376
0.513087
0.45283
0.393209
0.348356
0.319977
0.296791
0.278658
0.265339
0.256451
0.251312
0.248833
0.248118
0.248196
0.248338
0.248067
0.246977
0.244874
0.24193
0.238442
0.234774
0.231299
0.228264
0.225693
0.223619
0.222036
0.220882
0.220067
0.219489
0.219067
0.218749
0.218509
0.218329
0.218192
0.218093
0.218033
0.217997
0.21799
0.218004
0.218024
0.218043
0.218054
0.218048
0.218049
0.218061
0.218067
0.218057
)
;

boundaryField
{
    AXIS
    {
        type            empty;
    }
    OUTLET
    {
        type            zeroGradient;
    }
    COFLOW
    {
        type            fixedValue;
        value           uniform 1;
    }
    PILOT
    {
        type            fixedValue;
        value           uniform 1;
    }
    FUEL
    {
        type            fixedValue;
        value           uniform 5;
    }
    WALL
    {
        type            compressible::kqRWallFunction;
        value           nonuniform List<scalar> 
50
(
0.975813
0.843592
0.699565
0.59376
0.513087
0.45283
0.393209
0.348356
0.319977
0.296791
0.278658
0.265339
0.256451
0.251312
0.248833
0.248118
0.248196
0.248338
0.248067
0.246977
0.244874
0.24193
0.238442
0.234774
0.231299
0.228264
0.225693
0.223619
0.222036
0.220882
0.220067
0.219489
0.219067
0.218749
0.218509
0.218329
0.218192
0.218093
0.218033
0.217997
0.21799
0.218004
0.218024
0.218043
0.218054
0.218048
0.218049
0.218061
0.218067
0.218057
)
;
    }
    front
    {
        type            wedge;
    }
    back
    {
        type            wedge;
    }
}


// ************************************************************************* //
