/*--------------------------------*- C++ -*----------------------------------*\
| =========                 |                                                 |
| \\      /  F ield         | OpenFOAM: The Open Source CFD Toolbox           |
|  \\    /   O peration     | Version:  2.4.x                                 |
|   \\  /    A nd           | Web:      www.OpenFOAM.org                      |
|    \\/     M anipulation  |                                                 |
\*---------------------------------------------------------------------------*/
FoamFile
{
    version     2.0;
    format      ascii;
    class       surfaceScalarField;
    location    "0.04";
    object      phi;
}
// * * * * * * * * * * * * * * * * * * * * * * * * * * * * * * * * * * * * * //

dimensions      [1 0 -1 0 0 0 0];

internalField   nonuniform List<scalar> 
2425
(
1.06647e-06
-1.55662e-08
1.03595e-06
3.0438e-08
9.77152e-07
5.87187e-08
9.10462e-07
6.66244e-08
8.44444e-07
6.59656e-08
7.82243e-07
6.21601e-08
7.28155e-07
5.40559e-08
6.78265e-07
4.98586e-08
6.32049e-07
4.61823e-08
5.87345e-07
4.46699e-08
5.47106e-07
4.02116e-08
5.11994e-07
3.50982e-08
4.79345e-07
3.26326e-08
4.50639e-07
2.86905e-08
4.24268e-07
2.63559e-08
4.00901e-07
2.33545e-08
3.7958e-07
2.13081e-08
3.60363e-07
1.92e-08
3.42463e-07
1.78847e-08
3.25616e-07
1.68173e-08
3.09403e-07
1.62044e-08
2.93084e-07
1.62662e-08
2.76725e-07
1.62202e-08
2.59626e-07
1.731e-08
2.39238e-07
2.02776e-08
2.1296e-07
2.54409e-08
1.79466e-07
3.25047e-08
1.50622e-07
3.11103e-08
1.3535e-07
2.48591e-08
1.2862e-07
2.07954e-08
1.39064e-07
1.79253e-08
1.67408e-07
1.77424e-08
1.88271e-07
1.52591e-08
1.90586e-07
9.51959e-09
1.86672e-07
6.90719e-09
1.82491e-07
4.81614e-09
1.79106e-07
3.43011e-09
1.76574e-07
2.44657e-09
1.74727e-07
1.74198e-09
1.73365e-07
1.26174e-09
1.7235e-07
9.21493e-10
1.71572e-07
6.92876e-10
1.70956e-07
5.38842e-10
1.70455e-07
4.30256e-10
1.70041e-07
3.51509e-10
1.69694e-07
2.92139e-10
1.69394e-07
2.55435e-10
1.69143e-07
2.16718e-10
1.68946e-07
1.75925e-10
8.90785e-11
3.21254e-06
-7.54873e-08
3.07443e-06
1.68303e-07
2.87673e-06
2.56194e-07
2.67188e-06
2.71277e-07
2.47394e-06
2.63751e-07
2.29522e-06
2.40755e-07
2.13603e-06
2.13143e-07
1.98846e-06
1.97336e-07
1.84677e-06
1.87765e-07
1.71824e-06
1.73091e-07
1.60335e-06
1.55018e-07
1.50039e-06
1.38014e-07
1.40778e-06
1.25192e-07
1.32429e-06
1.12132e-07
1.24906e-06
1.01533e-07
1.18065e-06
9.17214e-08
1.11954e-06
8.23697e-08
1.06369e-06
7.49924e-08
1.01201e-06
6.9511e-08
9.63141e-07
6.56004e-08
9.15945e-07
6.33795e-08
8.68591e-07
6.34629e-08
8.20861e-07
6.35729e-08
7.7113e-07
6.76612e-08
7.11695e-07
7.93737e-08
6.34979e-07
9.97416e-08
5.37481e-07
1.27618e-07
4.54573e-07
1.20651e-07
4.09981e-07
9.83022e-08
3.90068e-07
8.24504e-08
4.20856e-07
7.24586e-08
5.04883e-07
7.18094e-08
5.66449e-07
6.15754e-08
5.72533e-07
3.87328e-08
5.60506e-07
2.78631e-08
5.47797e-07
1.94184e-08
5.37555e-07
1.38056e-08
5.29912e-07
9.83418e-09
5.24333e-07
7.00609e-09
5.20224e-07
5.06835e-09
5.17163e-07
3.70292e-09
5.1482e-07
2.7815e-09
5.12963e-07
2.16211e-09
5.11456e-07
1.72535e-09
5.10211e-07
1.40836e-09
5.09169e-07
1.17057e-09
5.08268e-07
1.02178e-09
5.07516e-07
8.67177e-10
5.06924e-07
7.04801e-10
3.60792e-10
5.26018e-06
-8.06537e-08
4.91823e-06
5.09868e-07
4.54331e-06
6.3076e-07
4.19984e-06
6.14443e-07
3.89344e-06
5.69893e-07
3.61872e-06
5.15259e-07
3.35654e-06
4.75175e-07
3.1138e-06
4.39936e-07
2.89741e-06
4.03988e-07
2.7038e-06
3.66518e-07
2.53047e-06
3.28203e-07
2.37541e-06
2.92989e-07
2.23575e-06
2.64768e-07
2.1094e-06
2.3839e-07
1.9944e-06
2.16446e-07
1.89039e-06
1.95652e-07
1.79662e-06
1.76051e-07
1.71096e-06
1.60554e-07
1.6311e-06
1.49295e-07
1.55513e-06
1.41431e-07
1.48155e-06
1.36945e-07
1.40745e-06
1.37309e-07
1.33249e-06
1.38062e-07
1.25381e-06
1.47346e-07
1.15942e-06
1.73222e-07
1.03797e-06
2.17391e-07
8.84283e-07
2.77548e-07
7.54539e-07
2.64018e-07
6.84665e-07
2.17322e-07
6.53243e-07
1.8139e-07
7.05754e-07
1.63207e-07
8.4502e-07
1.61834e-07
9.45643e-07
1.38413e-07
9.54711e-07
8.75389e-08
9.34429e-07
6.27925e-08
9.13199e-07
4.37507e-08
8.96137e-07
3.1079e-08
8.83408e-07
2.21375e-08
8.74111e-07
1.57782e-08
8.67258e-07
1.14158e-08
8.62152e-07
8.34385e-09
8.58242e-07
6.26685e-09
8.55145e-07
4.87038e-09
8.52632e-07
3.88547e-09
8.50556e-07
3.16983e-09
8.48823e-07
2.63089e-09
8.47328e-07
2.29255e-09
8.46079e-07
1.94697e-09
8.45097e-07
1.58062e-09
8.08236e-10
6.93746e-06
3.41548e-07
6.23895e-06
1.2079e-06
5.70284e-06
1.16646e-06
5.27738e-06
1.0395e-06
4.88358e-06
9.63377e-07
4.52276e-06
8.75808e-07
4.20683e-06
7.90905e-07
3.92826e-06
7.18311e-07
3.67855e-06
6.53464e-07
3.45443e-06
5.90379e-07
3.25355e-06
5.28867e-07
3.07196e-06
4.7447e-07
2.90598e-06
4.30633e-07
2.75452e-06
3.89726e-07
2.61615e-06
3.54689e-07
2.49041e-06
3.21279e-07
2.37614e-06
2.90203e-07
2.27032e-06
2.66248e-07
2.17074e-06
2.48759e-07
2.0755e-06
2.36506e-07
1.98265e-06
2.29808e-07
1.88868e-06
2.30967e-07
1.79259e-06
2.33813e-07
1.68984e-06
2.51443e-07
1.56692e-06
2.95297e-07
1.40957e-06
3.69829e-07
1.21171e-06
4.70019e-07
1.04582e-06
4.6986e-07
9.53464e-07
3.7896e-07
9.14441e-07
3.19864e-07
9.93152e-07
2.87754e-07
1.18803e-06
2.85934e-07
1.32521e-06
2.44248e-07
1.33658e-06
1.54998e-07
1.30828e-06
1.11063e-07
1.2788e-06
7.74544e-08
1.25515e-06
5.50005e-08
1.23749e-06
3.91968e-08
1.22458e-06
2.79506e-08
1.21506e-06
2.02324e-08
1.20795e-06
1.47942e-08
1.20251e-06
1.11113e-08
1.19821e-06
8.63353e-09
1.19471e-06
6.88496e-09
1.19183e-06
5.61278e-09
1.18943e-06
4.65176e-09
1.18736e-06
4.04575e-09
1.18563e-06
3.43661e-09
1.18427e-06
2.79078e-09
1.42519e-09
7.10542e-06
2.70081e-06
6.29972e-06
2.01315e-06
5.88716e-06
1.57866e-06
5.49627e-06
1.42996e-06
5.16718e-06
1.29207e-06
4.87589e-06
1.16675e-06
4.60805e-06
1.05846e-06
4.3617e-06
9.6441e-07
4.13232e-06
8.8254e-07
3.92178e-06
8.00583e-07
3.72934e-06
7.21044e-07
3.55045e-06
6.53205e-07
3.38497e-06
5.95968e-07
3.2313e-06
5.4324e-07
3.08722e-06
4.98597e-07
2.95489e-06
4.53474e-07
2.8337e-06
4.11228e-07
2.71944e-06
3.80355e-07
2.61112e-06
3.5695e-07
2.50648e-06
3.40971e-07
2.4034e-06
3.32985e-07
2.29778e-06
3.36245e-07
2.18814e-06
3.43529e-07
2.06802e-06
3.74322e-07
1.92319e-06
4.4092e-07
1.73799e-06
5.50077e-07
1.51486e-06
6.75246e-07
1.32444e-06
6.86307e-07
1.21266e-06
5.78466e-07
1.17153e-06
4.93144e-07
1.28235e-06
4.42547e-07
1.53407e-06
4.40441e-07
1.70505e-06
3.76005e-07
1.71766e-06
2.39921e-07
1.68177e-06
1.71709e-07
1.64447e-06
1.19971e-07
1.61459e-06
8.51852e-08
1.59224e-06
6.07641e-08
1.57589e-06
4.33571e-08
1.56381e-06
3.14058e-08
1.55479e-06
2.29758e-08
1.54788e-06
1.72563e-08
1.54241e-06
1.34052e-08
1.53797e-06
1.0685e-08
1.53431e-06
8.70327e-09
1.53127e-06
7.20113e-09
1.52866e-06
6.25151e-09
1.52649e-06
5.30976e-09
1.52477e-06
4.31243e-09
2.20166e-09
3.3086e-06
-4.3062e-09
4.34765e-06
9.73825e-07
4.69962e-06
1.22641e-06
4.76358e-06
1.36557e-06
4.72485e-06
1.33033e-06
4.62938e-06
1.26181e-06
4.50189e-06
1.18561e-06
4.36181e-06
1.10418e-06
4.21987e-06
1.02412e-06
4.08113e-06
9.38945e-07
3.94488e-06
8.56995e-07
3.80829e-06
7.89613e-07
3.66961e-06
7.34476e-07
3.53065e-06
6.82008e-07
3.39836e-06
6.30698e-07
3.27511e-06
5.7651e-07
3.16015e-06
5.25986e-07
3.04995e-06
4.90397e-07
2.9438e-06
4.62957e-07
2.83977e-06
4.44882e-07
2.7355e-06
4.37453e-07
2.62683e-06
4.44634e-07
2.51214e-06
4.59e-07
2.38236e-06
5.0735e-07
2.22171e-06
6.02926e-07
2.01004e-06
7.58865e-07
1.77083e-06
9.01162e-07
1.57804e-06
9.12679e-07
1.45923e-06
8.06118e-07
1.42359e-06
7.03238e-07
1.57296e-06
6.31041e-07
1.88281e-06
6.20555e-07
2.08479e-06
5.29052e-07
2.09737e-06
3.40833e-07
2.05452e-06
2.43425e-07
2.01e-06
1.70552e-07
1.97438e-06
1.21126e-07
1.94767e-06
8.65125e-08
1.92808e-06
6.17805e-08
1.91359e-06
4.479e-08
1.90276e-06
3.27875e-08
1.89445e-06
2.46273e-08
1.88787e-06
1.91264e-08
1.88254e-06
1.52372e-08
1.87815e-06
1.23993e-08
1.87451e-06
1.02403e-08
1.8714e-06
8.87287e-09
1.8688e-06
7.53234e-09
1.86676e-06
6.12442e-09
3.13218e-09
1.51712e-06
-8.0808e-07
2.61686e-06
-1.26105e-07
3.33772e-06
5.05281e-07
3.76089e-06
9.41934e-07
3.98617e-06
1.10456e-06
4.08822e-06
1.15929e-06
4.11796e-06
1.15545e-06
4.10071e-06
1.12105e-06
4.05575e-06
1.06869e-06
3.99467e-06
9.99612e-07
3.92108e-06
9.30229e-07
3.83812e-06
8.72356e-07
3.7505e-06
8.21858e-07
3.65837e-06
7.73914e-07
3.55931e-06
7.29546e-07
3.45807e-06
6.77511e-07
3.36052e-06
6.23328e-07
3.26498e-06
5.85785e-07
3.17068e-06
5.57143e-07
3.07636e-06
5.39213e-07
2.97929e-06
5.34876e-07
2.87513e-06
5.48744e-07
2.76223e-06
5.7385e-07
2.62986e-06
6.43337e-07
2.46174e-06
7.73692e-07
2.23703e-06
9.85813e-07
1.994e-06
1.14039e-06
1.80887e-06
1.14929e-06
1.69179e-06
1.05129e-06
1.66962e-06
9.4294e-07
1.86452e-06
8.43694e-07
2.23379e-06
8.1959e-07
2.46351e-06
6.97945e-07
2.47521e-06
4.55547e-07
2.42628e-06
3.24899e-07
2.37529e-06
2.28291e-07
2.33449e-06
1.62218e-07
2.30379e-06
1.16052e-07
2.28124e-06
8.29627e-08
2.26451e-06
6.02114e-08
2.25198e-06
4.41092e-08
2.24236e-06
3.31358e-08
2.23475e-06
2.57276e-08
2.22858e-06
2.04842e-08
2.22351e-06
1.6652e-08
2.21931e-06
1.37241e-08
2.21573e-06
1.18672e-08
2.21276e-06
1.00663e-08
2.21041e-06
8.19885e-09
4.2051e-09
9.36298e-07
-9.21274e-07
1.58824e-06
-7.78289e-07
2.29512e-06
-2.01924e-07
2.84466e-06
3.91944e-07
3.219e-06
7.29697e-07
3.45728e-06
9.20497e-07
3.60802e-06
1.00424e-06
3.69583e-06
1.0328e-06
3.74227e-06
1.0218e-06
3.75933e-06
9.82083e-07
3.75163e-06
9.37538e-07
3.72627e-06
8.97428e-07
3.68897e-06
8.58865e-07
3.64325e-06
8.19389e-07
3.59068e-06
7.81875e-07
3.52707e-06
7.40926e-07
3.45502e-06
6.95233e-07
3.38159e-06
6.59175e-07
3.30573e-06
6.33009e-07
3.22624e-06
6.18896e-07
3.14099e-06
6.20715e-07
3.047e-06
6.43133e-07
2.9411e-06
6.82805e-07
2.8122e-06
7.76442e-07
2.64022e-06
9.50404e-07
2.41413e-06
1.21106e-06
2.18559e-06
1.38273e-06
2.01654e-06
1.38618e-06
1.90916e-06
1.3021e-06
1.90834e-06
1.20721e-06
2.15623e-06
1.09284e-06
2.58856e-06
1.07904e-06
2.84069e-06
8.78802e-07
2.851e-06
5.81467e-07
2.79691e-06
4.14391e-07
2.74027e-06
2.92198e-07
2.69493e-06
2.0778e-07
2.66069e-06
1.48944e-07
2.63546e-06
1.06613e-07
2.61669e-06
7.74736e-08
2.6026e-06
5.68048e-08
2.59177e-06
4.2682e-08
2.5832e-06
3.313e-08
2.57626e-06
2.63615e-08
2.57056e-06
2.14066e-08
2.56586e-06
1.76024e-08
2.56186e-06
1.51871e-08
2.55855e-06
1.28691e-08
2.55593e-06
1.05059e-08
5.40935e-09
7.95687e-07
-7.8411e-07
1.04822e-06
-1.03115e-06
1.59837e-06
-7.52387e-07
2.13707e-06
-1.47141e-07
2.55821e-06
3.08058e-07
2.87091e-06
6.07259e-07
3.09632e-06
7.78299e-07
3.25823e-06
8.70357e-07
3.37396e-06
9.05556e-07
3.45369e-06
9.01823e-07
3.50283e-06
8.87953e-07
3.52965e-06
8.70264e-07
3.53967e-06
8.48528e-07
3.53587e-06
8.22941e-07
3.52144e-06
7.96091e-07
3.49645e-06
7.65688e-07
3.45815e-06
7.33498e-07
3.41059e-06
7.06848e-07
3.35702e-06
6.86781e-07
3.29715e-06
6.7931e-07
3.22964e-06
6.89184e-07
3.15128e-06
7.22739e-07
3.05646e-06
7.81912e-07
2.93137e-06
9.06301e-07
2.75963e-06
1.12562e-06
2.55411e-06
1.42587e-06
2.35387e-06
1.63014e-06
2.20236e-06
1.63063e-06
2.11243e-06
1.56401e-06
2.14196e-06
1.47037e-06
2.45316e-06
1.35747e-06
2.94625e-06
1.34627e-06
3.21585e-06
1.06723e-06
3.22456e-06
7.15857e-07
3.16627e-06
5.09993e-07
3.10489e-06
3.61201e-07
3.05572e-06
2.57085e-07
3.01841e-06
1.84713e-07
2.99081e-06
1.32418e-07
2.97021e-06
9.63645e-08
2.9547e-06
7.07272e-08
2.94278e-06
5.31585e-08
2.93333e-06
4.1249e-08
2.92569e-06
3.27991e-08
2.91941e-06
2.66038e-08
2.91426e-06
2.18216e-08
2.9099e-06
1.87821e-08
2.9063e-06
1.58955e-08
2.90343e-06
1.30126e-08
6.73129e-09
9.54701e-07
-6.96291e-07
9.74422e-07
-1.05119e-06
1.27159e-06
-1.04964e-06
1.67628e-06
-5.52104e-07
2.06374e-06
-7.9845e-08
2.38622e-06
2.84249e-07
2.64468e-06
5.19227e-07
2.84363e-06
6.70742e-07
2.99251e-06
7.55982e-07
3.10277e-06
7.90907e-07
3.1855e-06
8.04697e-07
3.2469e-06
8.08497e-07
3.292e-06
8.03144e-07
3.32457e-06
7.90082e-07
3.34981e-06
7.7055e-07
3.36594e-06
7.48979e-07
3.365e-06
7.33882e-07
3.34911e-06
7.22628e-07
3.32311e-06
7.12823e-07
3.2866e-06
7.16223e-07
3.23977e-06
7.36919e-07
3.18138e-06
7.82948e-07
3.10294e-06
8.64734e-07
2.99173e-06
1.02331e-06
2.83866e-06
1.28592e-06
2.67236e-06
1.61075e-06
2.50506e-06
1.84424e-06
2.36962e-06
1.88412e-06
2.30069e-06
1.82768e-06
2.37205e-06
1.74482e-06
2.75555e-06
1.63946e-06
3.3064e-06
1.61341e-06
3.58863e-06
1.25921e-06
3.59565e-06
8.56269e-07
3.53425e-06
6.10006e-07
3.4691e-06
4.34188e-07
3.41681e-06
3.0939e-07
3.37691e-06
2.22871e-07
3.34727e-06
1.60054e-07
3.32506e-06
1.16665e-07
3.30829e-06
8.57251e-08
3.29537e-06
6.4455e-08
3.28514e-06
4.99983e-08
3.27686e-06
3.97256e-08
3.27008e-06
3.21831e-08
3.26453e-06
2.63271e-08
3.25986e-06
2.26007e-08
3.25601e-06
1.90992e-08
3.25293e-06
1.56846e-08
8.15679e-09
1.81656e-06
-1.49563e-07
1.52883e-06
-7.64564e-07
1.41403e-06
-9.34831e-07
1.56514e-06
-7.0336e-07
1.84815e-06
-3.63298e-07
2.14212e-06
-1.04029e-08
2.40601e-06
2.54448e-07
2.63246e-06
4.43308e-07
2.819e-06
5.68449e-07
2.95929e-06
6.49727e-07
3.06625e-06
6.97078e-07
3.15359e-06
7.2082e-07
3.22443e-06
7.32278e-07
3.28314e-06
7.31657e-07
3.33643e-06
7.17191e-07
3.38351e-06
7.01885e-07
3.41584e-06
7.01687e-07
3.43228e-06
7.06752e-07
3.4358e-06
7.10122e-07
3.42605e-06
7.27232e-07
3.40134e-06
7.63495e-07
3.36071e-06
8.27081e-07
3.29699e-06
9.34713e-07
3.19562e-06
1.13344e-06
3.06115e-06
1.43407e-06
2.91892e-06
1.79537e-06
2.77803e-06
2.05198e-06
2.66705e-06
2.14632e-06
2.62319e-06
2.10975e-06
2.7569e-06
2.04024e-06
3.24768e-06
1.95069e-06
3.88818e-06
1.88694e-06
4.19615e-06
1.46157e-06
4.20219e-06
1.00849e-06
4.13521e-06
7.18634e-07
4.06337e-06
5.1444e-07
4.00549e-06
3.67142e-07
3.96103e-06
2.65261e-07
3.92783e-06
1.90908e-07
3.90284e-06
1.39412e-07
3.88392e-06
1.02582e-07
3.8693e-06
7.71668e-08
3.85772e-06
5.9838e-08
3.84836e-06
4.75005e-08
3.8407e-06
3.84287e-08
3.83447e-06
3.13414e-08
3.82924e-06
2.68246e-08
3.82495e-06
2.26286e-08
3.82151e-06
1.86504e-08
9.76012e-09
2.75033e-06
3.33943e-08
2.41174e-06
-4.28191e-07
2.05306e-06
-5.77248e-07
1.90376e-06
-5.549e-07
1.96732e-06
-4.27726e-07
2.15454e-06
-1.99088e-07
2.38396e-06
2.321e-08
2.61125e-06
2.14002e-07
2.81468e-06
3.63096e-07
2.99309e-06
4.69836e-07
3.1472e-06
5.42078e-07
3.27955e-06
5.88265e-07
3.39408e-06
6.18123e-07
3.49325e-06
6.33457e-07
3.57431e-06
6.37336e-07
3.63583e-06
6.43082e-07
3.68534e-06
6.54738e-07
3.7259e-06
6.69034e-07
3.75428e-06
6.84894e-07
3.76884e-06
7.15789e-07
3.76676e-06
7.69799e-07
3.74481e-06
8.56361e-07
3.69542e-06
9.94288e-07
3.61263e-06
1.23354e-06
3.50432e-06
1.58194e-06
3.3736e-06
1.98062e-06
3.24816e-06
2.27622e-06
3.16727e-06
2.42832e-06
3.16475e-06
2.43125e-06
3.39733e-06
2.37567e-06
4.05839e-06
2.30842e-06
4.83994e-06
2.17069e-06
5.19351e-06
1.6806e-06
5.1999e-06
1.17967e-06
5.12413e-06
8.41405e-07
5.04142e-06
6.06555e-07
4.97435e-06
4.33851e-07
4.92244e-06
3.14578e-07
4.88341e-06
2.27028e-07
4.85388e-06
1.66161e-07
4.83141e-06
1.22481e-07
4.81402e-06
9.21957e-08
4.80023e-06
7.14652e-08
4.78909e-06
5.66662e-08
4.78e-06
4.57655e-08
4.77263e-06
3.7192e-08
4.76649e-06
3.17168e-08
4.76148e-06
2.66951e-08
4.75745e-06
2.20956e-08
1.16517e-08
3.58005e-06
9.95388e-08
3.30818e-06
-1.60315e-07
2.98517e-06
-2.58679e-07
2.70183e-06
-2.76587e-07
2.52514e-06
-2.56483e-07
2.4931e-06
-1.72707e-07
2.56908e-06
-5.86471e-08
2.70857e-06
6.86704e-08
2.87881e-06
1.87809e-07
3.05399e-06
2.91238e-07
3.22067e-06
3.73819e-07
3.3763e-06
4.32802e-07
3.52108e-06
4.74695e-07
3.65331e-06
5.03423e-07
3.77046e-06
5.23174e-07
3.87337e-06
5.43838e-07
3.96423e-06
5.68136e-07
4.04223e-06
5.95967e-07
4.10422e-06
6.28512e-07
4.14849e-06
6.78218e-07
4.17294e-06
7.54029e-07
4.17328e-06
8.69734e-07
4.1397e-06
1.04714e-06
4.06763e-06
1.33427e-06
3.97179e-06
1.72402e-06
3.86936e-06
2.15916e-06
3.78124e-06
2.51721e-06
3.7468e-06
2.72794e-06
3.82163e-06
2.79489e-06
4.20647e-06
2.75865e-06
5.08486e-06
2.72481e-06
6.02179e-06
2.44616e-06
6.43138e-06
1.8974e-06
6.43852e-06
1.36746e-06
6.35516e-06
9.76645e-07
6.26181e-06
7.1012e-07
6.1854e-06
5.09529e-07
6.1257e-06
3.71007e-07
6.08042e-06
2.68695e-07
6.04594e-06
1.97191e-07
6.01955e-06
1.45679e-07
5.99905e-06
1.09754e-07
5.98277e-06
8.50441e-08
5.96965e-06
6.73393e-08
5.95895e-06
5.42685e-08
5.95034e-06
4.39166e-08
5.94321e-06
3.72908e-08
5.93744e-06
3.1296e-08
5.93277e-06
2.60289e-08
1.38501e-08
4.52956e-06
1.07721e-07
4.35285e-06
1.06569e-08
4.10791e-06
-2.24361e-08
3.84552e-06
-2.66589e-08
3.58757e-06
-1.46483e-08
3.37826e-06
1.60163e-08
3.23689e-06
5.92391e-08
3.17826e-06
1.04655e-07
3.19854e-06
1.49072e-07
3.27896e-06
1.99605e-07
3.40254e-06
2.45728e-07
3.54916e-06
2.86285e-07
3.70399e-06
3.22578e-07
3.85652e-06
3.55605e-07
4.00119e-06
3.8479e-07
4.13647e-06
4.15612e-07
4.26172e-06
4.50927e-07
4.37367e-06
4.92354e-07
4.46861e-06
5.43067e-07
4.54392e-06
6.13755e-07
4.59595e-06
7.15655e-07
4.61984e-06
8.66637e-07
4.60796e-06
1.09067e-06
4.55639e-06
1.42967e-06
4.48133e-06
1.86649e-06
4.42049e-06
2.33792e-06
4.39221e-06
2.76407e-06
4.42889e-06
3.0501e-06
4.62459e-06
3.17788e-06
5.24044e-06
3.19741e-06
6.40984e-06
3.20892e-06
7.53619e-06
2.89297e-06
7.96897e-06
2.12872e-06
7.97677e-06
1.56989e-06
7.88685e-06
1.12196e-06
7.78456e-06
8.23013e-07
7.69948e-06
5.93255e-07
7.63227e-06
4.34081e-07
7.5807e-06
3.15771e-07
7.5411e-06
2.32498e-07
7.51057e-06
1.72242e-07
7.48674e-06
1.29919e-07
7.46779e-06
1.00635e-07
7.45252e-06
7.95497e-08
7.44012e-06
6.39366e-08
7.43018e-06
5.14872e-08
7.42203e-06
4.35007e-08
7.4155e-06
3.63733e-08
7.4102e-06
3.04124e-08
1.63519e-08
5.66266e-06
9.85161e-08
5.55459e-06
1.1104e-07
5.38455e-06
1.35679e-07
5.1825e-06
1.55965e-07
4.95591e-06
1.8335e-07
4.71419e-06
2.1504e-07
4.47463e-06
2.43211e-07
4.25312e-06
2.62163e-07
4.08005e-06
2.57174e-07
3.98877e-06
2.41551e-07
3.98967e-06
2.15922e-07
4.05914e-06
2.03816e-07
4.16994e-06
2.07494e-07
4.30325e-06
2.23788e-07
4.44635e-06
2.46494e-07
4.59004e-06
2.78608e-07
4.72862e-06
3.20258e-07
4.85629e-06
3.73419e-07
4.96614e-06
4.43334e-07
5.05419e-06
5.38283e-07
5.11723e-06
6.70648e-07
5.15061e-06
8.61583e-07
5.15213e-06
1.13627e-06
5.11674e-06
1.53006e-06
5.06459e-06
2.01511e-06
5.05775e-06
2.53267e-06
5.1079e-06
3.03017e-06
5.25411e-06
3.3837e-06
5.65201e-06
3.59613e-06
6.62098e-06
3.66274e-06
8.14703e-06
3.65352e-06
9.42883e-06
3.28482e-06
9.87035e-06
2.36094e-06
9.88475e-06
1.76889e-06
9.79154e-06
1.27164e-06
9.68385e-06
9.4091e-07
9.59208e-06
6.82698e-07
9.51859e-06
5.02324e-07
9.46133e-06
3.67431e-07
9.4169e-06
2.71595e-07
9.38229e-06
2.01902e-07
9.35512e-06
1.52526e-07
9.33343e-06
1.18116e-07
9.31598e-06
9.31796e-08
9.30186e-06
7.46457e-08
9.29062e-06
5.97762e-08
9.28148e-06
5.02132e-08
9.27425e-06
4.17893e-08
9.26838e-06
3.51369e-08
1.9116e-08
7.06122e-06
8.79351e-08
6.99727e-06
1.65406e-07
6.88779e-06
2.30194e-07
6.73825e-06
2.80877e-07
6.55649e-06
3.24414e-07
6.35169e-06
3.61202e-07
6.11707e-06
3.90912e-07
5.85832e-06
4.08988e-07
5.5998e-06
3.88157e-07
5.37485e-06
3.35999e-07
5.21916e-06
2.59864e-07
5.14332e-06
1.98639e-07
5.13888e-06
1.57049e-07
5.18625e-06
1.38232e-07
5.26693e-06
1.40426e-07
5.36632e-06
1.61488e-07
5.4733e-06
2.02241e-07
5.57777e-06
2.62592e-07
5.67157e-06
3.49299e-07
5.74782e-06
4.68933e-07
5.80044e-06
6.36331e-07
5.82533e-06
8.73265e-07
5.82552e-06
1.20192e-06
5.79456e-06
1.6539e-06
5.76518e-06
2.18476e-06
5.8244e-06
2.75876e-06
5.97533e-06
3.32241e-06
6.30395e-06
3.75916e-06
7.0357e-06
4.06124e-06
8.48882e-06
4.14278e-06
1.04185e-05
4.12027e-06
1.17949e-05
3.57793e-06
1.22258e-05
2.57545e-06
1.22507e-05
1.94858e-06
1.21592e-05
1.4171e-06
1.20517e-05
1.05705e-06
1.1957e-05
7.73686e-07
1.18797e-05
5.7287e-07
1.18183e-05
4.21837e-07
1.177e-05
3.13259e-07
1.17319e-05
2.33856e-07
1.17017e-05
1.77028e-07
1.16775e-05
1.37075e-07
1.1658e-05
1.07878e-07
1.16423e-05
8.60855e-08
1.16299e-05
6.85135e-08
1.16199e-05
5.71738e-08
1.16121e-05
4.72994e-08
1.16058e-05
3.9992e-08
2.20425e-08
8.80869e-06
8.0572e-08
8.77347e-06
1.89307e-07
8.70687e-06
2.79599e-07
8.60682e-06
3.52988e-07
8.4697e-06
4.15142e-07
8.29099e-06
4.63887e-07
8.09412e-06
4.89694e-07
7.86387e-06
4.9386e-07
7.59343e-06
4.60645e-07
7.31976e-06
3.88234e-07
7.06931e-06
2.91153e-07
6.87136e-06
2.01349e-07
6.73557e-06
1.31229e-07
6.65617e-06
8.7283e-08
6.621e-06
7.32615e-08
6.61633e-06
8.53566e-08
6.62957e-06
1.25129e-07
6.65088e-06
1.92482e-07
6.67223e-06
2.97146e-07
6.68405e-06
4.44442e-07
6.68236e-06
6.49297e-07
6.66525e-06
9.34775e-07
6.64246e-06
1.31822e-06
6.61101e-06
1.8266e-06
6.62318e-06
2.39842e-06
6.78658e-06
3.03752e-06
7.11694e-06
3.65775e-06
7.75634e-06
4.18604e-06
8.99181e-06
4.55919e-06
1.10944e-05
4.6339e-06
1.33283e-05
4.35792e-06
1.47414e-05
3.69268e-06
1.51447e-05
2.75377e-06
1.51841e-05
2.09156e-06
1.51017e-05
1.54672e-06
1.50023e-05
1.16216e-06
1.49105e-05
8.59695e-07
1.48338e-05
6.41007e-07
1.47712e-05
4.75712e-07
1.4721e-05
3.55201e-07
1.46806e-05
2.66515e-07
1.46482e-05
2.02293e-07
1.4622e-05
1.56664e-07
1.4601e-05
1.22961e-07
1.4584e-05
9.76862e-08
1.45706e-05
7.72344e-08
1.45601e-05
6.39735e-08
1.4552e-05
5.25267e-08
1.45455e-05
4.46394e-08
2.49547e-08
1.10021e-05
7.44049e-08
1.09841e-05
1.94318e-07
1.09483e-05
2.9661e-07
1.08899e-05
3.81678e-07
1.08075e-05
4.53632e-07
1.06901e-05
5.076e-07
1.05226e-05
5.36673e-07
1.03049e-05
5.23549e-07
1.00476e-05
4.77388e-07
9.74164e-06
3.88738e-07
9.44194e-06
2.80679e-07
9.16215e-06
1.77617e-07
8.91406e-06
9.95056e-08
8.7036e-06
5.23696e-08
8.52954e-06
3.76245e-08
8.38456e-06
5.44699e-08
8.26089e-06
1.03922e-07
8.15804e-06
1.89435e-07
8.06618e-06
3.16673e-07
7.97714e-06
4.97704e-07
7.88989e-06
7.45214e-07
7.81215e-06
1.07977e-06
7.75792e-06
1.52205e-06
7.72937e-06
2.07044e-06
7.82978e-06
2.69257e-06
8.17466e-06
3.39149e-06
8.81486e-06
4.0618e-06
9.97822e-06
4.62845e-06
1.19715e-05
5.03793e-06
1.47521e-05
5.02177e-06
1.71402e-05
4.65334e-06
1.83852e-05
3.73565e-06
1.87587e-05
2.85194e-06
1.88162e-05
2.18191e-06
1.87579e-05
1.64119e-06
1.86774e-05
1.24377e-06
1.85972e-05
9.31221e-07
1.85275e-05
6.99889e-07
1.84683e-05
5.24006e-07
1.84195e-05
3.9373e-07
1.83792e-05
2.97195e-07
1.83462e-05
2.26371e-07
1.83192e-05
1.75413e-07
1.82973e-05
1.37276e-07
1.82797e-05
1.08522e-07
1.82659e-05
8.52209e-08
1.82551e-05
7.00227e-08
1.82472e-05
5.69432e-08
1.82409e-05
4.86093e-08
2.76e-08
1.37552e-05
6.74643e-08
1.37499e-05
1.85738e-07
1.37402e-05
2.8842e-07
1.37204e-05
3.74757e-07
1.36841e-05
4.46682e-07
1.36194e-05
4.99697e-07
1.3508e-05
5.26202e-07
1.33215e-05
5.12454e-07
1.30716e-05
4.4918e-07
1.27777e-05
3.49221e-07
1.24309e-05
2.33891e-07
1.20652e-05
1.44516e-07
1.1704e-05
7.52053e-08
1.13588e-05
4.7305e-08
1.10368e-05
5.00401e-08
1.07381e-05
8.90888e-08
1.04623e-05
1.62713e-07
1.02078e-05
2.76622e-07
9.97042e-06
4.37021e-07
9.75514e-06
6.57637e-07
9.57934e-06
9.57353e-07
9.44865e-06
1.34415e-06
9.38591e-06
1.84797e-06
9.42688e-06
2.42216e-06
9.7222e-06
3.10275e-06
1.03891e-05
3.82477e-06
1.15558e-05
4.52858e-06
1.35344e-05
5.06164e-06
1.63086e-05
5.39999e-06
1.96019e-05
5.26969e-06
2.18575e-05
4.5643e-06
2.28802e-05
3.65582e-06
2.32336e-05
2.84134e-06
2.33217e-05
2.1991e-06
2.33031e-05
1.68164e-06
2.32549e-05
1.28718e-06
2.31978e-05
9.76097e-07
2.31437e-05
7.40163e-07
2.30947e-05
5.59492e-07
2.30521e-05
4.23443e-07
2.30154e-05
3.21846e-07
2.29844e-05
2.46247e-07
2.29583e-05
1.91046e-07
2.29371e-05
1.49089e-07
2.29199e-05
1.17247e-07
2.29063e-05
9.14706e-08
2.28958e-05
7.45447e-08
2.28884e-05
5.99126e-08
2.28829e-05
5.12666e-08
2.95783e-08
1.72097e-05
5.82517e-08
1.72134e-05
1.65806e-07
1.7222e-05
2.6023e-07
1.72303e-05
3.39653e-07
1.72319e-05
4.04139e-07
1.72153e-05
4.49133e-07
1.71745e-05
4.68214e-07
1.70705e-05
4.49937e-07
1.68631e-05
3.90604e-07
1.65329e-05
2.96933e-07
1.6151e-05
1.9936e-07
1.57099e-05
1.26767e-07
1.52326e-05
9.18999e-08
1.47541e-05
1.00462e-07
1.42837e-05
1.40872e-07
1.38301e-05
2.20913e-07
1.34026e-05
3.31975e-07
1.30071e-05
4.86784e-07
1.265e-05
6.90483e-07
1.23416e-05
9.60812e-07
1.21061e-05
1.30978e-06
1.19769e-05
1.75287e-06
1.19874e-05
2.29647e-06
1.22534e-05
2.90866e-06
1.29538e-05
3.62338e-06
1.4208e-05
4.28798e-06
1.62198e-05
4.91847e-06
1.92915e-05
5.27254e-06
2.26697e-05
5.27641e-06
2.57654e-05
4.95301e-06
2.75511e-05
4.21423e-06
2.84138e-05
3.39568e-06
2.87736e-05
2.69701e-06
2.8918e-05
2.11608e-06
2.89592e-05
1.64662e-06
2.89595e-05
1.27519e-06
2.89391e-05
9.79885e-07
2.89116e-05
7.50285e-07
2.88814e-05
5.72857e-07
2.88517e-05
4.37095e-07
2.88237e-05
3.34833e-07
2.87982e-05
2.57609e-07
2.8776e-05
2.00267e-07
2.87572e-05
1.55904e-07
2.87418e-05
1.21978e-07
2.87295e-05
9.46226e-08
2.872e-05
7.65353e-08
2.87136e-05
6.0687e-08
2.87095e-05
5.17857e-08
3.02822e-08
2.1544e-05
4.69701e-08
2.15525e-05
1.37601e-07
2.15733e-05
2.17612e-07
2.16031e-05
2.83941e-07
2.164e-05
3.35731e-07
2.16723e-05
3.68501e-07
2.16836e-05
3.77827e-07
2.1644e-05
3.58238e-07
2.15095e-05
3.1446e-07
2.12387e-05
2.52814e-07
2.08185e-05
2.0308e-07
2.02911e-05
1.72878e-07
1.9744e-05
1.91924e-07
1.9164e-05
2.50776e-07
1.85736e-05
3.47879e-07
1.80035e-05
4.79048e-07
1.74724e-05
6.37608e-07
1.69976e-05
8.39398e-07
1.65993e-05
1.08995e-06
1.63068e-05
1.4064e-06
1.61609e-05
1.79807e-06
1.6199e-05
2.27982e-06
1.6512e-05
2.81988e-06
1.73068e-05
3.42894e-06
1.87364e-05
4.04495e-06
2.0903e-05
4.55598e-06
2.39218e-05
4.98284e-06
2.76824e-05
5.1534e-06
3.09163e-05
4.86162e-06
3.32069e-05
4.32731e-06
3.45597e-05
3.66024e-06
3.52895e-05
2.9906e-06
3.56817e-05
2.41377e-06
3.58975e-05
1.92273e-06
3.60151e-05
1.52015e-06
3.60794e-05
1.19173e-06
3.61101e-05
9.27589e-07
3.61213e-05
7.17344e-07
3.61199e-05
5.53281e-07
3.61111e-05
4.25944e-07
3.60978e-05
3.29191e-07
3.60828e-05
2.54926e-07
3.60679e-05
1.98771e-07
3.60542e-05
1.54553e-07
3.60424e-05
1.20379e-07
3.60324e-05
9.29763e-08
3.60247e-05
7.47495e-08
3.60199e-05
5.84494e-08
3.60182e-05
4.90349e-08
2.87887e-08
2.69844e-05
3.35187e-08
2.69956e-05
1.03242e-07
2.70243e-05
1.65538e-07
2.70676e-05
2.15758e-07
2.71224e-05
2.52019e-07
2.71819e-05
2.71489e-07
2.72331e-05
2.726e-07
2.72512e-05
2.57271e-07
2.72031e-05
2.34443e-07
2.70466e-05
2.17901e-07
2.67526e-05
2.32664e-07
2.63077e-05
2.84816e-07
2.57415e-05
3.89033e-07
2.51015e-05
5.27025e-07
2.44742e-05
6.90301e-07
2.39039e-05
8.69971e-07
2.33978e-05
1.07598e-06
2.29999e-05
1.31097e-06
2.27494e-05
1.58889e-06
2.27041e-05
1.91591e-06
2.291e-05
2.30624e-06
2.3436e-05
2.74474e-06
2.449e-05
3.22458e-06
2.61262e-05
3.69496e-06
2.84103e-05
4.0842e-06
3.15484e-05
4.41666e-06
3.49439e-05
4.48729e-06
3.80145e-05
4.38477e-06
4.04003e-05
3.9565e-06
4.20578e-05
3.4602e-06
4.31461e-05
2.92926e-06
4.38489e-05
2.42125e-06
4.43119e-05
1.98385e-06
4.46234e-05
1.60385e-06
4.48344e-05
1.2871e-06
4.49778e-05
1.02158e-06
4.50734e-05
8.0444e-07
4.51357e-05
6.28062e-07
4.51739e-05
4.89031e-07
4.51948e-05
3.80097e-07
4.52036e-05
2.96759e-07
4.52046e-05
2.31661e-07
4.52013e-05
1.81302e-07
4.51959e-05
1.41029e-07
4.51898e-05
1.09491e-07
4.51838e-05
8.4382e-08
4.51791e-05
6.75216e-08
4.51767e-05
5.18978e-08
4.51782e-05
4.19625e-08
2.44183e-08
3.3813e-05
1.95669e-08
3.38198e-05
6.70459e-08
3.3846e-05
1.10583e-07
3.38911e-05
1.42418e-07
3.39529e-05
1.61778e-07
3.40277e-05
1.67222e-07
3.41066e-05
1.60829e-07
3.41737e-05
1.4975e-07
3.42085e-05
1.48013e-07
3.41805e-05
1.74093e-07
3.40654e-05
2.5115e-07
3.38419e-05
3.87958e-07
3.35202e-05
5.80513e-07
3.31298e-05
8.07157e-07
3.27297e-05
1.03914e-06
3.2395e-05
1.25356e-06
3.21857e-05
1.47474e-06
3.21663e-05
1.70163e-06
3.24206e-05
1.95267e-06
3.29693e-05
2.22405e-06
3.38587e-05
2.51026e-06
3.52598e-05
2.82261e-06
3.7163e-05
3.10461e-06
3.95216e-05
3.33638e-06
4.21877e-05
3.46203e-06
4.49594e-05
3.50419e-06
4.7548e-05
3.36473e-06
4.98078e-05
3.11471e-06
5.15575e-05
2.77408e-06
5.28927e-05
2.39985e-06
5.38854e-05
2.04342e-06
5.46226e-05
1.70759e-06
5.51743e-05
1.41879e-06
5.55873e-05
1.1627e-06
5.58953e-05
9.45797e-07
5.61231e-05
7.59127e-07
5.62894e-05
6.03772e-07
5.64091e-05
4.74875e-07
5.64932e-05
3.72545e-07
5.65501e-05
2.92067e-07
5.65868e-05
2.30421e-07
5.66087e-05
1.81657e-07
5.66207e-05
1.43161e-07
5.6626e-05
1.1182e-07
5.66273e-05
8.67252e-08
5.66265e-05
6.67539e-08
5.66259e-05
5.31428e-08
5.66263e-05
4.01894e-08
5.66307e-05
3.06093e-08
1.73486e-08
4.23878e-05
6.21577e-09
4.23849e-05
3.22466e-08
4.24026e-05
5.61899e-08
4.24419e-05
6.81492e-08
4.25021e-05
6.90433e-08
4.25831e-05
5.74702e-08
4.26814e-05
3.77356e-08
4.27861e-05
2.48589e-08
4.28887e-05
2.96597e-08
4.29835e-05
6.83365e-08
4.30633e-05
1.66818e-07
4.31277e-05
3.30102e-07
4.31972e-05
5.37869e-07
4.3291e-05
7.77063e-07
4.34674e-05
9.87973e-07
4.37894e-05
1.14463e-06
4.43013e-05
1.28941e-06
4.50344e-05
1.42913e-06
4.60099e-05
1.57474e-06
4.72367e-05
1.71125e-06
4.87943e-05
1.84318e-06
5.06662e-05
1.95559e-06
5.2792e-05
2.02582e-06
5.50791e-05
2.0473e-06
5.73989e-05
2.00219e-06
5.96547e-05
1.91014e-06
6.17054e-05
1.76078e-06
6.34918e-05
1.58662e-06
6.50004e-05
1.3874e-06
6.62425e-05
1.19439e-06
6.72598e-05
1.0176e-06
6.80805e-05
8.56838e-07
6.87389e-05
7.21097e-07
6.92588e-05
6.00164e-07
6.96655e-05
4.95497e-07
6.9979e-05
4.02319e-07
7.02182e-05
3.21863e-07
7.03982e-05
2.53277e-07
7.0532e-05
1.98398e-07
7.06291e-05
1.55976e-07
7.06979e-05
1.244e-07
7.07443e-05
9.991e-08
7.07739e-05
8.06195e-08
7.07912e-05
6.42847e-08
7.08006e-05
5.03246e-08
7.08052e-05
3.88887e-08
7.08081e-05
3.12772e-08
7.08101e-05
2.4103e-08
7.08152e-05
1.66843e-08
8.52127e-09
5.31532e-05
5.31367e-05
5.3144e-05
5.31639e-05
5.31867e-05
5.32017e-05
5.31999e-05
5.31895e-05
5.31894e-05
5.32342e-05
5.3385e-05
5.37088e-05
5.42534e-05
5.50555e-05
5.60929e-05
5.7317e-05
5.87199e-05
6.02966e-05
6.20496e-05
6.39651e-05
6.60289e-05
6.8202e-05
7.04229e-05
7.2627e-05
7.4738e-05
7.67094e-05
7.84904e-05
8.0066e-05
8.14217e-05
8.25723e-05
8.35397e-05
8.43433e-05
8.50098e-05
8.5555e-05
8.59958e-05
8.63441e-05
8.66129e-05
8.68143e-05
8.69622e-05
8.70694e-05
8.7147e-05
8.72025e-05
8.72416e-05
8.72678e-05
8.72841e-05
8.72938e-05
8.73013e-05
8.73076e-05
8.73132e-05
)
;

boundaryField
{
    AXIS
    {
        type            empty;
        value           nonuniform 0();
    }
    OUTLET
    {
        type            calculated;
        value           nonuniform List<scalar> 
25
(
1.6885e-07
5.0663e-07
8.44613e-07