/*--------------------------------*- C++ -*----------------------------------*\
| =========                 |                                                 |
| \\      /  F ield         | OpenFOAM: The Open Source CFD Toolbox           |
|  \\    /   O peration     | Version:  2.4.x                                 |
|   \\  /    A nd           | Web:      www.OpenFOAM.org                      |
|    \\/     M anipulation  |                                                 |
\*---------------------------------------------------------------------------*/
FoamFile
{
    version     2.0;
    format      ascii;
    class       volScalarField;
    location    "0.04";
    object      rho;
}
// * * * * * * * * * * * * * * * * * * * * * * * * * * * * * * * * * * * * * //

dimensions      [1 -3 0 0 0 0 0];

internalField   nonuniform List<scalar> 
1250
(
1.00264
0.892741
0.800693
0.729115
0.670911
0.623172
0.583187
0.549116
0.518332
0.486067
0.457432
0.432562
0.409747
0.388936
0.37018
0.35274
0.337434
0.32408
0.311759
0.300212
0.289396
0.279336
0.269184
0.261581
0.255378
0.245609
0.232734
0.220063
0.248591
0.318503
0.442253
0.685979
0.969162
1.12071
1.16539
1.17683
1.17958
1.1802
1.18033
1.18036
1.18035
1.18034
1.18034
1.18033
1.18032
1.1803
1.18029
1.18028
1.18027
1.18026
0.995163
0.875997
0.784019
0.713726
0.657515
0.611992
0.574162
0.541982
0.508468
0.477243
0.449708
0.425756
0.403676
0.38369
0.365469
0.348542
0.333768
0.320831
0.308813
0.297565
0.286988
0.277158
0.267269
0.259857
0.253806
0.244366
0.232063
0.220237
0.249342
0.31923
0.443505
0.687676
0.970325
1.12105
1.16547
1.17685
1.17958
1.1802
1.18033
1.18036
1.18035
1.18034
1.18034
1.18033
1.18032
1.1803
1.18029
1.18028
1.18027
1.18026
0.972574
0.832163
0.742379
0.676949
0.627019
0.588216
0.553323
0.518282
0.486622
0.458134
0.433001
0.411
0.390831
0.372395
0.3553
0.339554
0.325921
0.313813
0.302491
0.291839
0.281807
0.272494
0.263166
0.25621
0.25039
0.24164
0.230688
0.220731
0.251177
0.321017
0.446743
0.69214
0.973375
1.12195
1.16568
1.1769
1.17959
1.18021
1.18033
1.18036
1.18035
1.18034
1.18034
1.18033
1.18032
1.1803
1.18029
1.18028
1.18027
1.18026
0.909946
0.747418
0.669569
0.62084
0.581802
0.544258
0.511325
0.482044
0.455169
0.430609
0.409132
0.390207
0.372516
0.356078
0.340858
0.326792
0.314714
0.303738
0.293364
0.283556
0.274381
0.265814
0.25736
0.250962
0.245449
0.237818
0.228814
0.222165
0.254208
0.323859
0.452161
0.699596
0.97844
1.12343
1.16602
1.17697
1.17961
1.18021
1.18034
1.18036
1.18035
1.18034
1.18034
1.18033
1.18032
1.1803
1.18029
1.18028
1.18027
1.18026
0.725387
0.598597
0.570221
0.537788
0.510141
0.48553
0.461905
0.439362
0.418057
0.398047
0.380997
0.36527
0.350534
0.336756
0.323728
0.311359
0.301055
0.29133
0.282161
0.273455
0.265346
0.257744
0.250296
0.244701
0.239656
0.23316
0.225924
0.225055
0.258249
0.328153
0.459837
0.709993
0.985397
1.12543
1.16648
1.17708
1.17963
1.18021
1.18034
1.18036
1.18035
1.18034
1.18034
1.18033
1.18032
1.1803
1.18029
1.18028
1.18027
1.18026
0.337073
0.428941
0.448539
0.444552
0.433288
0.419861
0.405053
0.389575
0.374945
0.361463
0.349983
0.33868
0.32772
0.316044
0.304992
0.294686
0.285997
0.277706
0.26983
0.262334
0.255386
0.248825
0.242509
0.237924
0.233548
0.2282
0.221339
0.226669
0.263062
0.334125
0.46992
0.723197
0.99403
1.12788
1.16704
1.1772
1.17966
1.18022
1.18034
1.18036
1.18035
1.18034
1.18034
1.18033
1.18032
1.1803
1.18029
1.18028
1.18027
1.18026
0.218264
0.318545
0.360559
0.372526
0.372731
0.365965
0.356925
0.346849
0.336451
0.32713
0.318772
0.310409
0.302224
0.29426
0.286248
0.277934
0.270723
0.263822
0.257239
0.250965
0.245224
0.239711
0.234538
0.230917
0.227393
0.223556
0.218345
0.228929
0.26877
0.341743
0.482488
0.738952
1.00401
1.13067
1.16769
1.17734
1.17969
1.18022
1.18034
1.18036
1.18035
1.18034
1.18034
1.18033
1.18032
1.1803
1.18029
1.18028
1.18027
1.18026
0.188094
0.27974
0.320536
0.331206
0.332852
0.327478
0.320292
0.312521
0.304584
0.298084
0.291888
0.285694
0.279535
0.273567
0.26779
0.262403
0.25653
0.25087
0.245457
0.240296
0.235478
0.230888
0.226843
0.224054
0.221561
0.218642
0.216742
0.232227
0.275081
0.351077
0.49756
0.757142
1.01493
1.13368
1.1684
1.1775
1.17972
1.18023
1.18034
1.18036
1.18035
1.18034
1.18034
1.18033
1.18032
1.1803
1.18029
1.18028
1.18027
1.18026
0.19334
0.287284
0.320253
0.319039
0.311881
0.304782
0.29623
0.288417
0.281328
0.275851
0.270652
0.265632
0.260809
0.256141
0.251595
0.247625
0.243616
0.238955
0.234529
0.230348
0.226481
0.222824
0.219877
0.217774
0.215753
0.214369
0.217641
0.236599
0.282134
0.361661
0.515345
0.778308
1.02634
1.13679
1.16913
1.17765
1.17975
1.18024
1.18034
1.18036
1.18035
1.18034
1.18034
1.18033
1.18032
1.1803
1.18029
1.18028
1.18027
1.18026
0.264887
0.368572
0.374404
0.338532
0.314465
0.29755
0.285116
0.27478
0.266153
0.258865
0.252798
0.247573
0.242974
0.238853
0.235311
0.23296
0.23047
0.227024
0.223642
0.220396
0.217443
0.214792
0.212846
0.211558
0.21094
0.212015
0.221242
0.242434
0.2902
0.373607
0.535158
0.800555
1.03781
1.13987
1.16986
1.17781
1.17978
1.18024
1.18034
1.18036
1.18035
1.18034
1.18034
1.18033
1.18032
1.1803
1.18029
1.18028
1.18027
1.18026
0.762948
0.594043
0.500255
0.406931
0.346543
0.311485
0.288776
0.272659
0.261812
0.252851
0.244372
0.237746
0.232319
0.227694
0.224133
0.222072
0.220169
0.21765
0.215183
0.212886
0.210808
0.209021
0.207951
0.20751
0.208164
0.21243
0.224198
0.249665
0.299367
0.387582
0.557891
0.823866
1.04928
1.14291
1.17058
1.17797
1.17981
1.18025
1.18034
1.18036
1.18035
1.18034
1.18034
1.18033
1.18032
1.1803
1.18029
1.18028
1.18027
1.18026
1.02421
0.824162
0.688637
0.548521
0.435118
0.36149
0.315761
0.288274
0.269031
0.255398
0.245641
0.237909
0.231884
0.227012
0.223319
0.219756
0.216254
0.213382
0.210959
0.208915
0.207235
0.206065
0.20568
0.20626
0.209385
0.21608
0.229131
0.258708
0.311363
0.405234
0.585083
0.849678
1.06145
1.14612
1.17134
1.17813
1.17985
1.18026
1.18034
1.18036
1.18035
1.18034
1.18034
1.18033
1.18032
1.1803
1.18029
1.18028
1.18027
1.18026
1.11292
0.975129
0.858714
0.729748
0.595206
0.479026
0.392285
0.335118
0.298523
0.27481
0.258143
0.245908
0.236993
0.230347
0.225127
0.220928
0.217443
0.214562
0.212121
0.210086
0.208473
0.207624
0.207728
0.209184
0.212923
0.220848
0.23736
0.27045
0.327796
0.42914
0.620147
0.879435
1.07495
1.14971
1.17221
1.17833
1.17989
1.18026
1.18035
1.18036
1.18035
1.18034
1.18034
1.18033
1.18032
1.1803
1.18029
1.18028
1.18027
1.18026
1.14408
1.0583
0.968295
0.8733
0.764453
0.649478
0.538707
0.444643
0.374448
0.325157
0.292841
0.271032
0.256102
0.245203
0.236949
0.230587
0.225555
0.221539
0.218259
0.215653
0.213741
0.212767
0.213243
0.215525
0.220117
0.229385
0.25003
0.287293
0.349836
0.462425
0.664991
0.9163
1.08986
1.1538
1.17321
1.17855
1.17994
1.18027
1.18035
1.18036
1.18035
1.18034
1.18034
1.18033
1.18032
1.1803
1.18029
1.18028
1.18027
1.18026
1.15745
1.10123
1.03806
0.965058
0.885809
0.794844
0.698664
0.599414
0.506325
0.428737
0.371612
0.331758
0.303914
0.283516
0.268422
0.256961
0.248006
0.240902
0.235163
0.230483
0.226995
0.225002
0.225075
0.227774
0.232879
0.244273
0.26903
0.311325
0.381663
0.508972
0.722573
0.961158
1.10591
1.15832
1.17434
1.17882
1.18
1.18029
1.18035
1.18036
1.18035
1.18034
1.18034
1.18033
1.18032
1.1803
1.18029
1.18028
1.18027
1.18026
1.1645
1.12552
1.08015
1.02721
0.964559
0.89467
0.817089
0.731498
0.644379
0.560674
0.486634
0.427225
0.381718
0.347574
0.321534
0.301465
0.285741
0.273248
0.263261
0.255454
0.249662
0.24611
0.245341
0.24807
0.253678
0.267802
0.297267
0.345437
0.428541
0.573928
0.794641
1.00891
1.12237
1.16302
1.17554
1.17911
1.18006
1.1803
1.18035
1.18036
1.18035
1.18034
1.18034
1.18033
1.18032
1.1803
1.18029
1.18028
1.18027
1.18026
1.16888
1.14082
1.10759
1.06828
1.02137
0.964894
0.89899
0.831172
0.753566
0.67506
0.598952
0.531346
0.474655
0.428601
0.391608
0.361895
0.337992
0.318545
0.303098
0.290872
0.281816
0.276085
0.274198
0.27702
0.284036
0.302472
0.338418
0.397334
0.497363
0.662454
0.876806
1.05588
1.13839
1.16762
1.17676
1.17942
1.18014
1.18032
1.18036
1.18036
1.18035
1.18034
1.18034
1.18033
1.18032
1.1803
1.18029
1.18028
1.18027
1.18026
1.17194
1.15142
1.12689
1.09752
1.06218
1.0201
0.968902
0.906689
0.841234
0.768055
0.694425
0.626597
0.565972
0.513529
0.469129
0.431984
0.401071
0.375572
0.355111
0.339006
0.327043
0.319523
0.317307
0.320798
0.330771
0.356455
0.401585
0.475737
0.59675
0.775279
0.969285
1.09775
1.15249
1.17175
1.17789
1.17971
1.18021
1.18033
1.18036
1.18036
1.18035
1.18034
1.18034
1.18033
1.18032
1.1803
1.18029
1.18028
1.18027
1.18026
1.17427
1.15941
1.14166
1.12038
1.09466
1.06313
1.0239
0.974773
0.914345
0.850973
0.784671
0.718082
0.656685
0.601384
0.552994
0.511403
0.476016
0.446314
0.422006
0.402813
0.389209
0.38149
0.380469
0.386204
0.403014
0.438968
0.497778
0.591472
0.730465
0.900744
1.0521
1.13148
1.16366
1.17511
1.17883
1.17996
1.18027
1.18035
1.18036
1.18036
1.18035
1.18035
1.18034
1.18033
1.18032
1.1803
1.18029
1.18028
1.18027
1.18026
1.17612
1.1657
1.15316
1.138
1.11947
1.09648
1.06754
1.03204
0.98706
0.931431
0.869543
0.809753
0.750593
0.695747
0.64659
0.60337
0.566189
0.534907
0.509431
0.489819
0.476549
0.470349
0.472885
0.484342
0.512827
0.561938
0.637739
0.7474
0.884683
1.02537
1.11332
1.15485
1.17153
1.17754
1.17954
1.18015
1.18032
1.18036
1.18037
1.18036
1.18035
1.18035
1.18034
1.18033
1.18032
1.1803
1.18029
1.18028
1.18027
1.18026
1.17753
1.17046
1.16188
1.15143
1.13886
1.12342
1.10409
1.07943
1.0477
1.00736
0.958337
0.903283
0.850441
0.800889
0.754671
0.713274
0.677663
0.647899
0.624307
0.607521
0.598184
0.597526
0.605439
0.627827
0.668835
0.730485
0.817946
0.924991
1.03421
1.10962
1.15037
1.16891
1.17636
1.17908
1.17999
1.18027
1.18035
1.18037
1.18037
1.18036
1.18035
1.18035
1.18034
1.18033
1.18032
1.1803
1.18029
1.18028
1.18027
1.18026
1.17866
1.17423
1.16879
1.16217
1.15409
1.14417
1.13186
1.11633
1.09648
1.07115
1.03964
1.0023
0.960614
0.917412
0.876197
0.84235
0.812966
0.788989
0.771279
0.760747
0.758578
0.764419
0.782719
0.81587
0.86329
0.928811
1.00451
1.07326
1.12364
1.15387
1.16925
1.17612
1.17888
1.1799
1.18024
1.18035
1.18037
1.18037
1.18037
1.18036
1.18035
1.18035
1.18034
1.18033
1.18032
1.1803
1.18029
1.18028
1.18027
1.18026
1.17953
1.17707
1.17392
1.17
1.1652
1.15938
1.15233
1.14371
1.13316
1.12011
1.10393
1.08429
1.06143
1.03643
1.01104
0.987132
0.96639
0.950265
0.940582
0.938074
0.941848
0.954929
0.97857
1.0105
1.04812
1.08675
1.12091
1.14673
1.16338
1.17264
1.17718
1.17917
1.17997
1.18026
1.18035
1.18038
1.18038
1.18038
1.18037
1.18036
1.18035
1.18035
1.18034
1.18033
1.18032
1.1803
1.18029
1.18028
1.18027
1.18026
1.18018
1.17916
1.17761
1.17562
1.1732
1.17037
1.16708
1.16326
1.15879
1.15349
1.14716
1.13963
1.13093
1.12133
1.11151
1.10239
1.09494
1.09002
1.08828
1.08938
1.09434
1.10392
1.1167
1.13104
1.1452
1.15749
1.16689
1.1732
1.17693
1.17888
1.17979
1.18018
1.18033
1.18038
1.18039
1.18039
1.18038
1.18038
1.18037
1.18036
1.18035
1.18035
1.18034
1.18033
1.18032
1.1803
1.18029
1.18028
1.18027
1.18026
1.18047
1.18024
1.17983
1.17925
1.17855
1.1778
1.17699
1.17608
1.17508
1.17398
1.17275
1.17135
1.16979
1.16813
1.16653
1.16515
1.1642
1.16383
1.1641
1.16508
1.16678
1.16903
1.17153
1.17398
1.1761
1.17774
1.1789
1.17963
1.18004
1.18025
1.18034
1.18038
1.1804
1.1804
1.1804
1.18039
1.18039
1.18038
1.18037
1.18036
1.18035
1.18035
1.18034
1.18033
1.18032
1.1803
1.18029
1.18028
1.18027
1.18026
)
;

boundaryField
{
    AXIS
    {
        type            empty;
    }
    OUTLET
    {
        type            calculated;
        value           uniform 1.18025;
    }
    COFLOW
    {
        type            calculated;
        value           nonuniform List<scalar> 
15
(
1.1805
1.1805
1.18049
1.18048
1.18048
1.18048
1.18048
1.18048
1.18048
1.18048
1.18048
1.18048
1.18048
1.18048
1.18048
)
;
    }
    PILOT
    {
        type            calculated;
        value           nonuniform List<scalar> 5(0.1568 0.156804 0.156817 0.156822 0.156826);
    }
    FUEL
    {
        type            calculated;
        value           nonuniform List<scalar> 5(1.05099 1.05096 1.05109 1.05146 1.05169);
    }
    WALL
    {
        type            calculated;
        value           nonuniform List<scalar> 
50
(
1.18047
1.18024
1.17983
1.17925
1.17855
1.1778
1.17699
1.17608
1.17508
1.17398
1.17275
1.17135
1.16979
1.16813
1.16653
1.16515
1.1642
1.16383
1.1641
1.16508
1.16678
1.16903
1.17153
1.17398
1.1761
1.17774
1.1789
1.17963
1.18004
1.18025
1.18034
1.18038
1.1804
1.1804
1.1804
1.18039
1.18039
1.18038
1.18037
1.18036
1.18035
1.18035
1.18034
1.18033
1.18032
1.1803
1.18029
1.18028
1.18027
1.18026
)
;
    }
    front
    {
        type            wedge;
    }
    back
    {
        type            wedge;
    }
}


// ************************************************************************* //
