/*--------------------------------*- C++ -*----------------------------------*\
| =========                 |                                                 |
| \\      /  F ield         | OpenFOAM: The Open Source CFD Toolbox           |
|  \\    /   O peration     | Version:  2.4.x                                 |
|   \\  /    A nd           | Web:      www.OpenFOAM.org                      |
|    \\/     M anipulation  |                                                 |
\*---------------------------------------------------------------------------*/
FoamFile
{
    version     2.0;
    format      ascii;
    class       volScalarField;
    location    "0.04";
    object      T;
}
// * * * * * * * * * * * * * * * * * * * * * * * * * * * * * * * * * * * * * //

dimensions      [0 0 0 1 0 0 0];

internalField   nonuniform List<scalar> 
1250
(
308.111
345.556
385.209
423.106
460.023
495.596
530.035
563.465
597.476
637.332
677.408
716.564
756.642
797.296
837.858
879.415
919.417
957.401
995.353
1033.74
1072.54
1111.37
1153.48
1187.44
1217.4
1269.25
1351.43
1460.51
1325.36
1056.17
771.793
502.577
357.396
309.52
297.756
294.883
294.199
294.043
294.009
294.002
294
294
294
294
294
294
294
294
294
294
310.4
352.139
393.398
432.278
469.52
504.872
538.686
571.301
609.271
649.333
689.28
728.272
768.287
808.483
848.955
890.31
929.832
967.427
1005.18
1043.29
1081.91
1120.49
1162.15
1195.74
1225.39
1276.26
1356.16
1460.3
1321.82
1053.94
769.686
501.357
356.972
309.425
297.735
294.878
294.198
294.043
294.009
294.002
294
294
294
294
294
294
294
294
294
294
317.594
370.608
415.491
455.98
492.825
526.022
559.837
598.015
637.181
677.01
716.5
755.068
794.223
833.716
873.966
914.613
952.976
989.842
1026.99
1064.6
1102.67
1140.57
1181.21
1213.75
1243.15
1291.94
1366.15
1459.18
1313.22
1048.51
764.286
498.178
355.866
309.18
297.683
294.867
294.196
294.043
294.009
294.002
294
294
294
294
294
294
294
294
294
294
339.385
412.487
460.974
498.118
532.488
569.76
606.905
644.11
682.377
721.46
759.508
796.542
834.523
873.169
912.254
951.619
988.2
1023.98
1060.28
1097.07
1133.94
1170.7
1209.4
1240.72
1269.85
1314.78
1380.35
1452.96
1299.19
1040
755.415
492.955
354.044
308.778
297.596
294.848
294.192
294.042
294.009
294.002
294
294
294
294
294
294
294
294
294
294
424.988
515.342
543.362
577.358
609.521
641.009
674.17
708.97
745.172
782.619
817.726
853.005
888.936
925.385
962.627
1000.78
1035.02
1069.59
1104.4
1139.66
1174.66
1209.5
1245.77
1274.81
1303.04
1344.07
1401.7
1437.59
1280.97
1027.32
743.188
485.853
351.572
308.233
297.479
294.822
294.187
294.041
294.009
294.002
294
294
294
294
294
294
294
294
294
294
920.31
726.434
696.36
703.379
722.026
745.189
772.333
802.826
834.021
865.117
893.588
923.423
954.263
989.196
1024.72
1060.29
1092.37
1124.9
1157.72
1190.85
1223.39
1255.83
1288.84
1314.3
1340.55
1377.36
1435
1431.47
1259.99
1010.09
727.708
477.122
348.551
307.57
297.337
294.791
294.181
294.04
294.008
294.002
294
294
294
294
294
294
294
294
294
294
1464.64
995.531
877.95
848.555
847.11
861.784
882.662
907.44
934.71
960.71
985.389
1011.5
1038.54
1066.35
1095.88
1128.16
1157.89
1187.95
1218.22
1248.65
1278
1307.54
1336.73
1358.36
1381.34
1411.22
1461.17
1421.98
1235.96
988.852
709.281
467.105
345.123
306.818
297.175
294.756
294.173
294.038
294.008
294.002
294
294
294
294
294
294
294
294
294
294
1739.08
1157.72
1004.97
968.045
959.813
972.744
992.139
1014.76
1039.45
1060.75
1082.1
1104.58
1128.1
1152.05
1176.4
1200.28
1227.21
1254.46
1281.83
1309.2
1335.95
1362.57
1387.25
1405.23
1423.33
1448.57
1479.54
1406.79
1210.57
963.941
688.365
456.05
341.449
306.009
296.996
294.718
294.166
294.037
294.008
294.002
294
294
294
294
294
294
294
294
294
294
1711.89
1152.68
1026.12
1021.77
1038.55
1057.58
1083.76
1109.53
1134.47
1154.64
1174.8
1195.32
1216.04
1237.06
1258.53
1278.14
1298.65
1323.3
1347.78
1371.94
1395.2
1418.09
1437.5
1452.01
1467.76
1484.79
1481.85
1385.97
1183.35
937.052
665.197
443.825
337.691
305.181
296.811
294.679
294.157
294.035
294.007
294.002
294
294
294
294
294
294
294
294
294
294
1272.36
917.77
896.355
980.309
1045.92
1097.64
1139.15
1176.65
1210.32
1240.55
1266.94
1290.8
1312.73
1333.28
1351.93
1364.9
1379.2
1399.33
1419.86
1440.38
1459.71
1477.79
1491.75
1501.68
1509.03
1509.92
1464.72
1357.78
1153.3
908.383
641.148
431.662
333.999
304.365
296.628
294.64
294.149
294.033
294.007
294.001
294
294
294
294
294
294
294
294
294
294
452.774
578.068
681.725
829.912
964.909
1063.95
1139.49
1199.81
1243.77
1282.97
1323.35
1356.38
1384.74
1410.09
1430.34
1442.13
1453.53
1469.19
1485.15
1500.54
1514.88
1527.7
1535.81
1540
1538.46
1516.81
1452.68
1323.59
1120.82
876.951
615.599
419.612
330.385
303.562
296.447
294.601
294.142
294.032
294.007
294.001
294
294
294
294
294
294
294
294
294
294
338.393
419.2
499.709
623.757
780.312
931.518
1058.2
1150.53
1225.68
1284.87
1330.63
1369.37
1401.2
1428.19
1449.32
1470.85
1492.81
1511.16
1527.14
1540.98
1552.6
1560.96
1563.89
1560.45
1540.4
1500.42
1429.13
1282.65
1080.63
840.167
587.58
407.029
326.634
302.719
296.255
294.56
294.133
294.03
294.007
294.001
294
294
294
294
294
294
294
294
294
294
311.663
355.122
402.448
472.186
576.493
712.47
864.181
1004.61
1120.64
1210.25
1282.3
1340.7
1386.52
1422.54
1452.16
1476.93
1498.18
1516.27
1532.01
1545.38
1556.08
1561.56
1560.54
1550.39
1525.99
1478.19
1387.86
1232.71
1029.69
794.923
554.991
393.427
322.57
301.781
296.037
294.512
294.123
294.028
294.006
294.001
294
294
294
294
294
294
294
294
294
294
303.255
327.54
357.566
395.871
451.297
529.664
636.115
766.978
905.833
1037.12
1145.54
1232.08
1298.99
1352.4
1395.69
1430.89
1459.9
1483.81
1503.85
1519.98
1531.77
1537.34
1533.24
1517.5
1488.12
1433.92
1326.1
1166.23
967.932
739.374
518.215
377.785
318.2
300.721
295.786
294.455
294.111
294.026
294.006
294.001
294
294
294
294
294
294
294
294
294
294
299.787
314.919
333.849
358.776
390.433
434.456
493.285
573.429
676.519
795.665
914.013
1019.65
1109.01
1184.73
1247.54
1299.68
1343.38
1380.01
1410.89
1436.88
1456.54
1467.44
1465.82
1448.63
1418.58
1357.33
1240.96
1081.95
890.454
673.451
477.563
360.349
313.625
299.558
295.505
294.389
294.096
294.023
294.005
294.001
294
294
294
294
294
294
294
294
294
294
297.992
308.201
320.999
337.352
359.002
386.695
422.923
471.693
534.418
612.685
703.837
799.166
891.569
976.123
1052.09
1119.08
1177.67
1228.59
1272.39
1308.61
1336.55
1353.85
1356.92
1342.02
1313.64
1248.27
1131
980.223
796.226
598.837
434.853
343.473
309.067
298.356
295.204
294.317
294.079
294.019
294.004
294.001
294
294
294
294
294
294
294
294
294
294
296.887
304.115
313.143
324.543
339.288
358.926
384.934
415.949
458.204
510.692
574.483
646.161
721.619
797.191
870.324
939.458
1003.47
1062.25
1113.92
1158.34
1193.38
1216.38
1223.72
1211.32
1182.57
1113.62
1000.12
856.887
688.89
520.205
394.604
328.345
304.756
297.193
294.901
294.242
294.061
294.015
294.003
294.001
294
294
294
294
294
294
294
294
294
294
296.121
301.347
307.843
315.999
326.406
339.732
357.494
381.75
411.104
449.773
496.79
549.694
607.516
668.312
730.147
791.36
850.656
906.61
957.004
1000.68
1035.66
1058.77
1065.51
1054.06
1023.32
952.039
848.366
719.524
576.438
445.58
357.367
315.937
301.06
296.154
294.622
294.17
294.044
294.011
294.003
294.001
294
294
294
294
294
294
294
294
294
294
295.541
299.292
303.903
309.619
316.825
326.132
338.504
355.393
378.627
406.486
440.389
480.654
524.908
572.371
621.54
671.076
719.867
766.617
809.606
847.059
875.677
892.688
894.83
881.8
845.964
778.415
688.552
581.542
472.531
384.252
329.513
306.601
298.195
295.313
294.387
294.108
294.028
294.007
294.002
294
294
294
294
294
294
294
294
294
294
294
295.08
297.694
300.902
304.874
309.874
316.314
324.81
335.87
351.018
371.75
397.898
426.913
460.111
495.862
532.981
570.525
607.323
642.16
673.615
699.991
719.023
728.249
724.361
707.545
669.007
611.626
540.137
462.004
391.152
338.019
311.557
300.452
296.209
294.708
294.213
294.06
294.016
294.004
294.001
294
294
294
294
294
294
294
294
294
294
294
294.729
296.495
298.664
301.353
304.648
308.798
314.155
321.263
330.896
344.013
361.421
383.197
406.724
431.575
457.655
483.845
508.9
531.917
551.691
566.68
575.37
575.985
568.577
548.624
515.496
472.593
422.685
374.302
335.157
312.589
301.612
296.869
295.004
294.328
294.101
294.029
294.008
294.002
294
294
294
294
294
294
294
294
294
294
294
294
294.45
295.552
296.913
298.591
300.664
303.246
306.514
310.74
316.312
323.721
333.433
345.726
360.565
377.354
394.9
410.582
425.241
438
447.927
454.046
455.326
451.893
441.463
423.746
400.741
372.779
344.97
323.079
308.722
300.705
296.784
295.064
294.378
294.125
294.039
294.011
294.003
294.001
294
294
294
294
294
294
294
294
294
294
294
294
294.234
294.843
295.628
296.61
297.821
299.302
301.118
303.367
306.166
309.698
314.193
319.826
326.646
334.446
342.758
350.973
358.429
364.45
368.163
369.136
367.673
362.691
354.02
342.947
330.756
319.11
309.471
302.562
298.269
295.933
294.802
294.308
294.109
294.036
294.011
294.003
294.001
294
294
294
294
294
294
294
294
294
294
294
294
294
294.074
294.326
294.711
295.205
295.808
296.517
297.345
298.312
299.451
300.814
302.459
304.437
306.757
309.358
312.064
314.621
316.741
318.159
318.664
318.345
316.916
314.192
310.629
306.725
302.967
299.776
297.384
295.796
294.865
294.381
294.155
294.058
294.021
294.007
294.002
294.001
294
294
294
294
294
294
294
294
294
294
294
294
294
294
294.003
294.058
294.159
294.302
294.477
294.661
294.863
295.088
295.336
295.61
295.918
296.267
296.657
297.074
297.479
297.827
298.068
298.162
298.092
297.844
297.414
296.845
296.216
295.605
295.076
294.667
294.38
294.199
294.096
294.043
294.018
294.007
294.002
294.001
294
294
294
294
294
294
294
294
294
294
294
294
294
294
294
294
)
;

boundaryField
{
    AXIS
    {
        type            empty;
    }
    OUTLET
    {
        type            calculated;
        value           uniform 294;
    }
    COFLOW
    {
        type            calculated;
        value           uniform 294;
    }
    PILOT
    {
        type            calculated;
        value           uniform 2102.68;
    }
    FUEL
    {
        type            calculated;
        value           uniform 294;
    }
    WALL
    {
        type            calculated;
        value           nonuniform List<scalar> 
50
(
294.003
294.058
294.159
294.302
294.477
294.661
294.863
295.088
295.336
295.61
295.918
296.267
296.657
297.074
297.479
297.827
298.068
298.162
298.092
297.844
297.414
296.845
296.216
295.605
295.076
294.667
294.38
294.199
294.096
294.043
294.018
294.007
294.002
294.001
294
294
294
294
294
294
294
294
294
294
294
294
294
294
294
294
)
;
    }
    front
    {
        type            wedge;
    }
    back
    {
        type            wedge;
    }
}


// ************************************************************************* //
