/*--------------------------------*- C++ -*----------------------------------*\
| =========                 |                                                 |
| \\      /  F ield         | OpenFOAM: The Open Source CFD Toolbox           |
|  \\    /   O peration     | Version:  2.4.x                                 |
|   \\  /    A nd           | Web:      www.OpenFOAM.org                      |
|    \\/     M anipulation  |                                                 |
\*---------------------------------------------------------------------------*/
FoamFile
{
    version     2.0;
    format      ascii;
    class       volScalarField;
    location    "0.04";
    object      thermo:psi;
}
// * * * * * * * * * * * * * * * * * * * * * * * * * * * * * * * * * * * * * //

dimensions      [0 -2 2 0 0 0 0];

internalField   nonuniform List<scalar> 
1250
(
1.0013e-05
8.92401e-06
8.00472e-06
7.28942e-06
6.70764e-06
6.23047e-06
5.83068e-06
5.4901e-06
5.18231e-06
4.85976e-06
4.57348e-06
4.32481e-06
4.09673e-06
3.88865e-06
3.70115e-06
3.52677e-06
3.37375e-06
3.24024e-06
3.11705e-06
3.00161e-06
2.89348e-06
2.7929e-06
2.69139e-06
2.61537e-06
2.55335e-06
2.45567e-06
2.32693e-06
2.20026e-06
2.48552e-06
3.18452e-06
4.42184e-06
6.85872e-06
9.69016e-06
1.12055e-05
1.16523e-05
1.17669e-05
1.17944e-05
1.18007e-05
1.18021e-05
1.18024e-05
1.18025e-05
1.18025e-05
1.18025e-05
1.18025e-05
1.18025e-05
1.18025e-05
1.18025e-05
1.18025e-05
1.18025e-05
1.18025e-05
9.93861e-06
8.75639e-06
7.8381e-06
7.13565e-06
6.57383e-06
6.11873e-06
5.74053e-06
5.41879e-06
5.08373e-06
4.77155e-06
4.49626e-06
4.25679e-06
4.03603e-06
3.83622e-06
3.65404e-06
3.48481e-06
3.3371e-06
3.20776e-06
3.08761e-06
2.97515e-06
2.8694e-06
2.77112e-06
2.67225e-06
2.59814e-06
2.53764e-06
2.44324e-06
2.32022e-06
2.202e-06
2.49303e-06
3.1918e-06
4.43436e-06
6.87569e-06
9.7018e-06
1.1209e-05
1.16531e-05
1.1767e-05
1.17945e-05
1.18007e-05
1.18021e-05
1.18024e-05
1.18025e-05
1.18025e-05
1.18025e-05
1.18025e-05
1.18025e-05
1.18025e-05
1.18025e-05
1.18025e-05
1.18025e-05
1.18025e-05
9.71183e-06
8.31804e-06
7.42184e-06
6.76796e-06
6.26892e-06
5.88101e-06
5.53216e-06
5.18182e-06
4.8653e-06
4.5805e-06
4.32921e-06
4.10926e-06
3.90761e-06
3.72328e-06
3.55237e-06
3.39495e-06
3.25864e-06
3.13759e-06
3.02439e-06
2.9179e-06
2.8176e-06
2.72449e-06
2.63123e-06
2.56168e-06
2.50348e-06
2.41599e-06
2.30648e-06
2.20695e-06
2.51138e-06
3.20967e-06
4.46674e-06
6.92032e-06
9.73229e-06
1.12179e-05
1.16552e-05
1.17675e-05
1.17946e-05
1.18008e-05
1.18021e-05
1.18024e-05
1.18025e-05
1.18025e-05
1.18025e-05
1.18025e-05
1.18025e-05
1.18025e-05
1.18025e-05
1.18025e-05
1.18025e-05
1.18025e-05
9.08321e-06
7.47091e-06
6.69405e-06
6.20704e-06
5.81684e-06
5.4415e-06
5.11226e-06
4.81952e-06
4.55084e-06
4.30529e-06
4.09057e-06
3.90135e-06
3.72448e-06
3.56014e-06
3.40797e-06
3.26734e-06
3.14659e-06
3.03685e-06
2.93314e-06
2.83508e-06
2.74335e-06
2.6577e-06
2.57317e-06
2.5092e-06
2.45408e-06
2.37778e-06
2.28775e-06
2.22128e-06
2.54168e-06
3.23808e-06
4.52091e-06
6.99487e-06
9.78294e-06
1.12327e-05
1.16586e-05
1.17683e-05
1.17947e-05
1.18008e-05
1.18021e-05
1.18024e-05
1.18025e-05
1.18025e-05
1.18025e-05
1.18025e-05
1.18025e-05
1.18025e-05
1.18025e-05
1.18025e-05
1.18025e-05
1.18025e-05
7.23929e-06
5.98377e-06
5.70096e-06
5.37672e-06
5.10038e-06
4.85435e-06
4.61816e-06
4.39278e-06
4.17978e-06
3.97973e-06
3.80927e-06
3.65203e-06
3.50471e-06
3.36695e-06
3.2367e-06
3.11305e-06
3.01002e-06
2.9128e-06
2.82113e-06
2.73408e-06
2.65301e-06
2.57701e-06
2.50254e-06
2.4466e-06
2.39616e-06
2.33121e-06
2.25885e-06
2.25018e-06
2.58208e-06
3.28102e-06
4.59767e-06
7.09883e-06
9.8525e-06
1.12527e-05
1.16633e-05
1.17693e-05
1.17949e-05
1.18008e-05
1.18021e-05
1.18024e-05
1.18025e-05
1.18025e-05
1.18025e-05
1.18025e-05
1.18025e-05
1.18025e-05
1.18025e-05
1.18025e-05
1.18025e-05
1.18025e-05
3.37073e-06
4.28875e-06
4.48456e-06
4.44463e-06
4.33203e-06
4.1978e-06
4.04976e-06
3.89501e-06
3.74875e-06
3.61396e-06
3.49919e-06
3.38619e-06
3.27661e-06
3.15988e-06
3.04938e-06
2.94634e-06
2.85948e-06
2.77658e-06
2.69784e-06
2.6229e-06
2.55343e-06
2.48783e-06
2.42469e-06
2.37885e-06
2.3351e-06
2.28162e-06
2.21302e-06
2.26632e-06
2.6302e-06
3.34073e-06
4.69848e-06
7.23085e-06
9.93883e-06
1.12772e-05
1.16689e-05
1.17705e-05
1.17952e-05
1.18009e-05
1.18022e-05
1.18024e-05
1.18025e-05
1.18025e-05
1.18025e-05
1.18025e-05
1.18025e-05
1.18025e-05
1.18025e-05
1.18025e-05
1.18025e-05
1.18025e-05
2.1826e-06
3.18492e-06
3.60492e-06
3.72454e-06
3.72659e-06
3.65894e-06
3.56857e-06
3.46784e-06
3.36388e-06
3.27069e-06
3.18713e-06
3.10352e-06
3.02169e-06
2.94207e-06
2.86197e-06
2.77885e-06
2.70675e-06
2.63777e-06
2.57195e-06
2.50923e-06
2.45183e-06
2.39672e-06
2.345e-06
2.3088e-06
2.27356e-06
2.23519e-06
2.18309e-06
2.28892e-06
2.68728e-06
3.41691e-06
4.82415e-06
7.38839e-06
1.00386e-05
1.13051e-05
1.16753e-05
1.1772e-05
1.17955e-05
1.18009e-05
1.18022e-05
1.18024e-05
1.18025e-05
1.18025e-05
1.18025e-05
1.18025e-05
1.18025e-05
1.18025e-05
1.18025e-05
1.18025e-05
1.18025e-05
1.18025e-05
1.88074e-06
2.79693e-06
3.20478e-06
3.31143e-06
3.32789e-06
3.27416e-06
3.20231e-06
3.12462e-06
3.04527e-06
2.98029e-06
2.91834e-06
2.85641e-06
2.79484e-06
2.73518e-06
2.67742e-06
2.62357e-06
2.56486e-06
2.50827e-06
2.45415e-06
2.40255e-06
2.35439e-06
2.3085e-06
2.26806e-06
2.24017e-06
2.21525e-06
2.18607e-06
2.16707e-06
2.3219e-06
2.75038e-06
3.51024e-06
4.97484e-06
7.57025e-06
1.01478e-05
1.13353e-05
1.16824e-05
1.17735e-05
1.17958e-05
1.1801e-05
1.18022e-05
1.18024e-05
1.18025e-05
1.18025e-05
1.18025e-05
1.18025e-05
1.18025e-05
1.18025e-05
1.18025e-05
1.18025e-05
1.18025e-05
1.18025e-05
1.93314e-06
2.87234e-06
3.20195e-06
3.18979e-06
3.11822e-06
3.04724e-06
2.96174e-06
2.88363e-06
2.81276e-06
2.758e-06
2.70603e-06
2.65584e-06
2.60761e-06
2.56095e-06
2.5155e-06
2.47582e-06
2.43573e-06
2.38914e-06
2.34489e-06
2.30309e-06
2.26443e-06
2.22787e-06
2.19841e-06
2.17738e-06
2.15717e-06
2.14334e-06
2.17606e-06
2.36562e-06
2.8209e-06
3.61606e-06
5.15266e-06
7.7819e-06
1.02619e-05
1.13663e-05
1.16898e-05
1.17751e-05
1.17961e-05
1.18011e-05
1.18022e-05
1.18024e-05
1.18025e-05
1.18025e-05
1.18025e-05
1.18025e-05
1.18025e-05
1.18025e-05
1.18025e-05
1.18025e-05
1.18025e-05
1.18025e-05
2.64845e-06
3.68507e-06
3.74335e-06
3.38468e-06
3.14406e-06
2.97493e-06
2.85062e-06
2.74728e-06
2.66103e-06
2.58817e-06
2.52752e-06
2.47528e-06
2.4293e-06
2.3881e-06
2.35269e-06
2.32919e-06
2.3043e-06
2.26985e-06
2.23604e-06
2.20359e-06
2.17407e-06
2.14757e-06
2.12811e-06
2.11523e-06
2.10906e-06
2.11981e-06
2.21207e-06
2.42395e-06
2.90155e-06
3.73551e-06
5.35078e-06
8.00433e-06
1.03765e-05
1.13971e-05
1.1697e-05
1.17766e-05
1.17964e-05
1.18011e-05
1.18022e-05
1.18024e-05
1.18025e-05
1.18025e-05
1.18025e-05
1.18025e-05
1.18025e-05
1.18025e-05
1.18025e-05
1.18025e-05
1.18025e-05
1.18025e-05
7.62788e-06
5.93932e-06
5.00159e-06
4.06853e-06
3.46476e-06
3.11425e-06
2.88721e-06
2.72608e-06
2.61763e-06
2.52804e-06
2.44327e-06
2.37702e-06
2.32277e-06
2.27653e-06
2.24093e-06
2.22033e-06
2.20131e-06
2.17612e-06
2.15146e-06
2.1285e-06
2.10773e-06
2.08987e-06
2.07917e-06
2.07476e-06
2.08131e-06
2.12397e-06
2.24163e-06
2.49626e-06
2.99321e-06
3.87523e-06
5.57807e-06
8.23741e-06
1.04912e-05
1.14275e-05
1.17042e-05
1.17782e-05
1.17968e-05
1.18012e-05
1.18022e-05
1.18024e-05
1.18025e-05
1.18025e-05
1.18025e-05
1.18025e-05
1.18025e-05
1.18025e-05
1.18025e-05
1.18025e-05
1.18025e-05
1.18025e-05
1.02399e-05
8.24004e-06
6.88504e-06
5.48415e-06
4.35034e-06
3.61421e-06
3.15701e-06
2.88219e-06
2.68981e-06
2.5535e-06
2.45595e-06
2.37866e-06
2.31842e-06
2.26971e-06
2.2328e-06
2.19717e-06
2.16216e-06
2.13345e-06
2.10923e-06
2.0888e-06
2.072e-06
2.06031e-06
2.05647e-06
2.06227e-06
2.09351e-06
2.16046e-06
2.29095e-06
2.58668e-06
3.11315e-06
4.05173e-06
5.84996e-06
8.49551e-06
1.06129e-05
1.14596e-05
1.17119e-05
1.17799e-05
1.17971e-05
1.18013e-05
1.18022e-05
1.18024e-05
1.18025e-05
1.18025e-05
1.18025e-05
1.18025e-05
1.18025e-05
1.18025e-05
1.18025e-05
1.18025e-05
1.18025e-05
1.18025e-05
1.11269e-05
9.7494e-06
8.58548e-06
7.29606e-06
5.95091e-06
4.78934e-06
3.92211e-06
3.35054e-06
2.98467e-06
2.74759e-06
2.58096e-06
2.45863e-06
2.3695e-06
2.30305e-06
2.25087e-06
2.20889e-06
2.17405e-06
2.14525e-06
2.12084e-06
2.1005e-06
2.08439e-06
2.0759e-06
2.07694e-06
2.09151e-06
2.12889e-06
2.20814e-06
2.37323e-06
2.70408e-06
3.27746e-06
4.29076e-06
6.20054e-06
8.79304e-06
1.0748e-05
1.14955e-05
1.17206e-05
1.17818e-05
1.17975e-05
1.18013e-05
1.18022e-05
1.18024e-05
1.18025e-05
1.18025e-05
1.18025e-05
1.18025e-05
1.18025e-05
1.18025e-05
1.18025e-05
1.18025e-05
1.18025e-05
1.18025e-05
1.14385e-05
1.05809e-05
9.68106e-06
8.7313e-06
7.64305e-06
6.49353e-06
5.38604e-06
4.44558e-06
3.74378e-06
3.25096e-06
2.92787e-06
2.70982e-06
2.56055e-06
2.45158e-06
2.36907e-06
2.30546e-06
2.25516e-06
2.21501e-06
2.18222e-06
2.15617e-06
2.13706e-06
2.12732e-06
2.13208e-06
2.1549e-06
2.20082e-06
2.29349e-06
2.49992e-06
2.87249e-06
3.49783e-06
4.62355e-06
6.64891e-06
9.16164e-06
1.0897e-05
1.15364e-05
1.17306e-05
1.17841e-05
1.1798e-05
1.18014e-05
1.18023e-05
1.18024e-05
1.18025e-05
1.18025e-05
1.18025e-05
1.18025e-05
1.18025e-05
1.18025e-05
1.18025e-05
1.18025e-05
1.18025e-05
1.18025e-05
1.15723e-05
1.10101e-05
1.03786e-05
9.64871e-06
8.85637e-06
7.94691e-06
6.9853e-06
5.993e-06
5.06229e-06
4.28656e-06
3.71543e-06
3.31697e-06
3.03859e-06
2.83465e-06
2.68374e-06
2.56916e-06
2.47963e-06
2.4086e-06
2.35122e-06
2.30444e-06
2.26957e-06
2.24965e-06
2.25039e-06
2.27738e-06
2.32842e-06
2.44235e-06
2.68989e-06
3.11278e-06
3.81605e-06
5.08895e-06
7.22465e-06
9.61016e-06
1.10576e-05
1.15816e-05
1.17418e-05
1.17867e-05
1.17986e-05
1.18016e-05
1.18023e-05
1.18024e-05
1.18025e-05
1.18025e-05
1.18025e-05
1.18025e-05
1.18025e-05
1.18025e-05
1.18025e-05
1.18025e-05
1.18025e-05
1.18025e-05
1.16427e-05
1.1253e-05
1.07994e-05
1.02701e-05
9.64373e-06
8.94498e-06
8.16933e-06
7.31358e-06
6.44257e-06
5.60569e-06
4.86544e-06
4.27146e-06
3.81648e-06
3.47511e-06
3.21477e-06
3.01411e-06
2.85691e-06
2.73201e-06
2.63216e-06
2.55411e-06
2.49621e-06
2.4607e-06
2.45301e-06
2.4803e-06
2.53638e-06
2.6776e-06
2.97222e-06
3.45384e-06
4.28477e-06
5.73842e-06
7.94523e-06
1.00876e-05
1.12221e-05
1.16287e-05
1.17539e-05
1.17897e-05
1.17993e-05
1.18017e-05
1.18023e-05
1.18024e-05
1.18025e-05
1.18025e-05
1.18025e-05
1.18025e-05
1.18025e-05
1.18025e-05
1.18025e-05
1.18025e-05
1.18025e-05
1.18025e-05
1.16865e-05
1.1406e-05
1.10738e-05
1.06808e-05
1.02117e-05
9.64708e-06
8.98818e-06
8.31014e-06
7.53424e-06
6.74933e-06
5.98841e-06
5.31248e-06
4.74569e-06
4.28523e-06
3.91538e-06
3.61831e-06
3.37933e-06
3.1849e-06
3.03046e-06
2.90823e-06
2.8177e-06
2.7604e-06
2.74154e-06
2.76976e-06
2.83992e-06
3.02425e-06
3.38366e-06
3.97274e-06
4.97288e-06
6.62355e-06
8.76679e-06
1.05572e-05
1.13823e-05
1.16746e-05
1.17661e-05
1.17927e-05
1.18e-05
1.18019e-05
1.18023e-05
1.18025e-05
1.18025e-05
1.18025e-05
1.18025e-05
1.18025e-05
1.18025e-05
1.18025e-05
1.18025e-05
1.18025e-05
1.18025e-05
1.18025e-05
1.17171e-05
1.15119e-05
1.12667e-05
1.0973e-05
1.06198e-05
1.01991e-05
9.68717e-06
9.06516e-06
8.41075e-06
7.67911e-06
6.94296e-06
6.26481e-06
5.65868e-06
5.13436e-06
4.69044e-06
4.31907e-06
4.01e-06
3.75506e-06
3.55051e-06
3.38949e-06
3.26989e-06
3.1947e-06
3.17256e-06
3.20747e-06
3.3072e-06
3.56399e-06
4.01524e-06
4.75665e-06
5.96662e-06
7.75164e-06
9.69144e-06
1.09759e-05
1.15233e-05
1.17159e-05
1.17774e-05
1.17956e-05
1.18007e-05
1.18021e-05
1.18024e-05
1.18025e-05
1.18025e-05
1.18025e-05
1.18025e-05
1.18025e-05
1.18025e-05
1.18025e-05
1.18025e-05
1.18025e-05
1.18025e-05
1.18025e-05
1.17404e-05
1.15919e-05
1.14144e-05
1.12017e-05
1.09445e-05
1.06292e-05
1.02371e-05
9.74587e-06
9.14172e-06
8.50813e-06
7.84525e-06
7.17949e-06
6.56564e-06
6.01275e-06
5.52894e-06
5.11312e-06
4.75932e-06
4.46237e-06
4.21934e-06
4.02745e-06
3.89144e-06
3.81428e-06
3.80407e-06
3.86143e-06
4.02951e-06
4.389e-06
4.97702e-06
5.91383e-06
7.30358e-06
9.00611e-06
1.05195e-05
1.13132e-05
1.1635e-05
1.17496e-05
1.17868e-05
1.17981e-05
1.18013e-05
1.18022e-05
1.18024e-05
1.18025e-05
1.18025e-05
1.18025e-05
1.18025e-05
1.18025e-05
1.18025e-05
1.18025e-05
1.18025e-05
1.18025e-05
1.18025e-05
1.18025e-05
1.17589e-05
1.16547e-05
1.15294e-05
1.13778e-05
1.11926e-05
1.09627e-05
1.06733e-05
1.03185e-05
9.86872e-06
9.31256e-06
8.6938e-06
8.09603e-06
7.50455e-06
6.95621e-06
6.46473e-06
6.03263e-06
5.66089e-06
5.34814e-06
5.09343e-06
4.89736e-06
4.76469e-06
4.70272e-06
4.72808e-06
4.84265e-06
5.12745e-06
5.6185e-06
6.37642e-06
7.47288e-06
8.84558e-06
1.02523e-05
1.11317e-05
1.15468e-05
1.17137e-05
1.17739e-05
1.17939e-05
1.18e-05
1.18018e-05
1.18023e-05
1.18024e-05
1.18025e-05
1.18025e-05
1.18025e-05
1.18025e-05
1.18025e-05
1.18025e-05
1.18025e-05
1.18025e-05
1.18025e-05
1.18025e-05
1.18025e-05
1.1773e-05
1.17023e-05
1.16166e-05
1.15121e-05
1.13864e-05
1.1232e-05
1.10387e-05
1.07922e-05
1.0475e-05
1.00717e-05
9.58157e-06
9.03115e-06
8.50284e-06
8.00743e-06
7.54535e-06
7.13146e-06
6.77543e-06
6.47786e-06
6.24199e-06
6.07417e-06
5.98083e-06
5.97426e-06
6.0534e-06
6.27726e-06
6.68728e-06
7.30371e-06
8.17821e-06
9.24851e-06
1.03406e-05
1.10946e-05
1.1502e-05
1.16875e-05
1.1762e-05
1.17892e-05
1.17984e-05
1.18013e-05
1.18022e-05
1.18024e-05
1.18025e-05
1.18025e-05
1.18025e-05
1.18025e-05
1.18025e-05
1.18025e-05
1.18025e-05
1.18025e-05
1.18025e-05
1.18025e-05
1.18025e-05
1.18025e-05
1.17843e-05
1.174e-05
1.16857e-05
1.16194e-05
1.15386e-05
1.14395e-05
1.13164e-05
1.11611e-05
1.09627e-05
1.07094e-05
1.03944e-05
1.00211e-05
9.60436e-06
9.17243e-06
8.76038e-06
8.42198e-06
8.12821e-06
7.8885e-06
7.71145e-06
7.60616e-06
7.5845e-06
7.64291e-06
7.82591e-06
8.15738e-06
8.63152e-06
9.28664e-06
1.00436e-05
1.0731e-05
1.12348e-05
1.1537e-05
1.16908e-05
1.17596e-05
1.17872e-05
1.17974e-05
1.18009e-05
1.1802e-05
1.18024e-05
1.18025e-05
1.18025e-05
1.18025e-05
1.18025e-05
1.18025e-05
1.18025e-05
1.18025e-05
1.18025e-05
1.18025e-05
1.18025e-05
1.18025e-05
1.18025e-05
1.18025e-05
1.1793e-05
1.17684e-05
1.17369e-05
1.16977e-05
1.16498e-05
1.15916e-05
1.15211e-05
1.14349e-05
1.13294e-05
1.11989e-05
1.10372e-05
1.08409e-05
1.06123e-05
1.03623e-05
1.01085e-05
9.86953e-06
9.66216e-06
9.50097e-06
9.40417e-06
9.37911e-06
9.41687e-06
9.54767e-06
9.78407e-06
1.01033e-05
1.04795e-05
1.08657e-05
1.12073e-05
1.14656e-05
1.16321e-05
1.17247e-05
1.17701e-05
1.179e-05
1.17981e-05
1.1801e-05
1.1802e-05
1.18024e-05
1.18025e-05
1.18025e-05
1.18025e-05
1.18025e-05
1.18025e-05
1.18025e-05
1.18025e-05
1.18025e-05
1.18025e-05
1.18025e-05
1.18025e-05
1.18025e-05
1.18025e-05
1.18025e-05
1.17995e-05
1.17893e-05
1.17738e-05
1.17539e-05
1.17297e-05
1.17014e-05
1.16686e-05
1.16304e-05
1.15857e-05
1.15327e-05
1.14694e-05
1.13942e-05
1.13072e-05
1.12112e-05
1.1113e-05
1.10219e-05
1.09474e-05
1.08982e-05
1.08808e-05
1.08919e-05
1.09415e-05
1.10374e-05
1.11651e-05
1.13086e-05
1.14501e-05
1.15731e-05
1.1667e-05
1.17302e-05
1.17676e-05
1.17871e-05
1.17962e-05
1.18001e-05
1.18017e-05
1.18022e-05
1.18024e-05
1.18025e-05
1.18025e-05
1.18025e-05
1.18025e-05
1.18025e-05
1.18025e-05
1.18025e-05
1.18025e-05
1.18025e-05
1.18025e-05
1.18025e-05
1.18025e-05
1.18025e-05
1.18025e-05
1.18025e-05
1.18024e-05
1.18001e-05
1.1796e-05
1.17902e-05
1.17832e-05
1.17758e-05
1.17676e-05
1.17585e-05
1.17486e-05
1.17376e-05
1.17252e-05
1.17113e-05
1.16957e-05
1.16792e-05
1.16631e-05
1.16494e-05
1.16399e-05
1.16362e-05
1.16389e-05
1.16487e-05
1.16658e-05
1.16883e-05
1.17134e-05
1.17378e-05
1.1759e-05
1.17755e-05
1.17871e-05
1.17944e-05
1.17986e-05
1.18007e-05
1.18017e-05
1.18022e-05
1.18024e-05
1.18025e-05
1.18025e-05
1.18025e-05
1.18025e-05
1.18025e-05
1.18025e-05
1.18025e-05
1.18025e-05
1.18025e-05
1.18025e-05
1.18025e-05
1.18025e-05
1.18025e-05
1.18025e-05
1.18025e-05
1.18025e-05
1.18025e-05
)
;

boundaryField
{
    AXIS
    {
        type            empty;
    }
    OUTLET
    {
        type            calculated;
        value           uniform 1.18025e-05;
    }
    COFLOW
    {
        type            calculated;
        value           uniform 1.18025e-05;
    }
    PILOT
    {
        type            calculated;
        value           uniform 1.56801e-06;
    }
    FUEL
    {
        type            calculated;
        value           uniform 1.04958e-05;
    }
    WALL
    {
        type            calculated;
        value           nonuniform List<scalar> 
50
(
1.18024e-05
1.18001e-05
1.1796e-05
1.17902e-05
1.17832e-05
1.17758e-05
1.17676e-05
1.17585e-05
1.17486e-05
1.17376e-05
1.17252e-05
1.17113e-05
1.16957e-05
1.16792e-05
1.16631e-05
1.16494e-05
1.16399e-05
1.16362e-05
1.16389e-05
1.16487e-05
1.16658e-05
1.16883e-05
1.17134e-05
1.17378e-05
1.1759e-05
1.17755e-05
1.17871e-05
1.17944e-05
1.17986e-05
1.18007e-05
1.18017e-05
1.18022e-05
1.18024e-05
1.18025e-05
1.18025e-05
1.18025e-05
1.18025e-05
1.18025e-05
1.18025e-05
1.18025e-05
1.18025e-05
1.18025e-05
1.18025e-05
1.18025e-05
1.18025e-05
1.18025e-05
1.18025e-05
1.18025e-05
1.18025e-05
1.18025e-05
)
;
    }
    front
    {
        type            wedge;
    }
    back
    {
        type            wedge;
    }
}


// ************************************************************************* //
