/*--------------------------------*- C++ -*----------------------------------*\
| =========                 |                                                 |
| \\      /  F ield         | OpenFOAM: The Open Source CFD Toolbox           |
|  \\    /   O peration     | Version:  2.4.x                                 |
|   \\  /    A nd           | Web:      www.OpenFOAM.org                      |
|    \\/     M anipulation  |                                                 |
\*---------------------------------------------------------------------------*/
FoamFile
{
    version     2.0;
    format      ascii;
    class       volScalarField;
    location    "0.04";
    object      thermo:alpha;
}
// * * * * * * * * * * * * * * * * * * * * * * * * * * * * * * * * * * * * * //

dimensions      [1 -1 -1 0 0 0 0];

internalField   nonuniform List<scalar> 
1250
(
2.72205e-05
2.99466e-05
3.26838e-05
3.51711e-05
3.7486e-05
3.9626e-05
4.16209e-05
4.34916e-05
4.5334e-05
4.74216e-05
4.94505e-05
5.13718e-05
5.32803e-05
5.51611e-05
5.69868e-05
5.88086e-05
6.05195e-05
6.21083e-05
6.36628e-05
6.52071e-05
6.67385e-05
6.82421e-05
6.98421e-05
7.11122e-05
7.22172e-05
7.40984e-05
7.70232e-05
8.08794e-05
7.65512e-05
6.67652e-05
5.46287e-05
4.04133e-05
3.09662e-05
2.74613e-05
2.65649e-05
2.63437e-05
2.6291e-05
2.62789e-05
2.62763e-05
2.62757e-05
2.62756e-05
2.62756e-05
2.62756e-05
2.62756e-05
2.62756e-05
2.62756e-05
2.62756e-05
2.62756e-05
2.62756e-05
2.62756e-05
2.73914e-05
3.04112e-05
3.32314e-05
3.57558e-05
3.80657e-05
4.01706e-05
4.21113e-05
4.39217e-05
4.596e-05
4.80368e-05
5.00396e-05
5.19355e-05
5.38249e-05
5.56699e-05
5.74784e-05
5.92789e-05
6.09587e-05
6.25223e-05
6.40611e-05
6.55871e-05
6.71042e-05
6.85918e-05
7.01682e-05
7.14198e-05
7.25097e-05
7.43501e-05
7.71894e-05
8.08791e-05
7.64312e-05
6.66784e-05
5.45298e-05
4.03402e-05
3.09361e-05
2.74541e-05
2.65633e-05
2.63433e-05
2.62909e-05
2.62789e-05
2.62763e-05
2.62757e-05
2.62756e-05
2.62756e-05
2.62756e-05
2.62756e-05
2.62756e-05
2.62756e-05
2.62756e-05
2.62756e-05
2.62756e-05
2.62756e-05
2.79247e-05
3.16926e-05
3.46806e-05
3.72375e-05
3.94627e-05
4.13929e-05
4.32928e-05
4.53643e-05
4.74159e-05
4.94325e-05
5.13698e-05
5.32076e-05
5.50221e-05
5.6804e-05
5.85738e-05
6.03173e-05
6.19258e-05
6.34399e-05
6.49387e-05
6.64281e-05
6.79086e-05
6.93562e-05
7.08808e-05
7.20833e-05
7.3156e-05
7.49104e-05
7.75409e-05
8.0858e-05
7.61387e-05
6.64663e-05
5.42754e-05
4.01493e-05
3.08576e-05
2.74356e-05
2.65592e-05
2.63425e-05
2.62907e-05
2.62789e-05
2.62763e-05
2.62757e-05
2.62756e-05
2.62756e-05
2.62756e-05
2.62756e-05
2.62756e-05
2.62756e-05
2.62756e-05
2.62756e-05
2.62756e-05
2.62756e-05
2.95072e-05
3.44854e-05
3.75442e-05
3.97753e-05
4.17622e-05
4.38402e-05
4.58387e-05
4.77745e-05
4.97026e-05
5.16115e-05
5.34176e-05
5.51299e-05
5.68418e-05
5.85411e-05
6.02192e-05
6.18709e-05
6.33742e-05
6.48195e-05
6.62599e-05
6.7694e-05
6.91062e-05
7.04906e-05
7.19241e-05
7.30681e-05
7.41197e-05
7.57217e-05
7.80407e-05
8.06748e-05
7.56586e-05
6.61325e-05
5.38553e-05
3.98342e-05
3.07279e-05
2.74052e-05
2.65526e-05
2.6341e-05
2.62904e-05
2.62788e-05
2.62762e-05
2.62757e-05
2.62756e-05
2.62756e-05
2.62756e-05
2.62756e-05
2.62756e-05
2.62756e-05
2.62756e-05
2.62756e-05
2.62756e-05
2.62756e-05
3.52906e-05
4.07761e-05
4.23759e-05
4.42569e-05
4.59813e-05
4.76212e-05
4.93007e-05
5.10147e-05
5.27491e-05
5.44953e-05
5.60937e-05
5.76633e-05
5.92267e-05
6.07787e-05
6.23306e-05
6.38869e-05
6.52623e-05
6.66273e-05
6.79789e-05
6.93253e-05
7.0641e-05
7.19305e-05
7.32525e-05
7.42979e-05
7.53038e-05
7.67529e-05
7.87828e-05
8.01851e-05
7.50306e-05
6.56312e-05
5.32713e-05
3.94029e-05
3.05515e-05
2.7364e-05
2.65436e-05
2.6339e-05
2.629e-05
2.62787e-05
2.62762e-05
2.62757e-05
2.62756e-05
2.62756e-05
2.62756e-05
2.62756e-05
2.62756e-05
2.62756e-05
2.62756e-05
2.62756e-05
2.62756e-05
2.62756e-05
6.05581e-05
5.18582e-05
5.04097e-05
5.07574e-05
5.16629e-05
5.27678e-05
5.4038e-05
5.54356e-05
5.68364e-05
5.82057e-05
5.94381e-05
6.07063e-05
6.19938e-05
6.3426e-05
6.48577e-05
6.62665e-05
6.75182e-05
6.87685e-05
7.00107e-05
7.12464e-05
7.24433e-05
7.362e-05
7.48016e-05
7.57036e-05
7.66266e-05
7.79137e-05
7.9923e-05
8.00114e-05
7.4302e-05
6.49432e-05
5.25237e-05
3.88681e-05
3.03352e-05
2.73137e-05
2.65327e-05
2.63366e-05
2.62895e-05
2.62786e-05
2.62762e-05
2.62757e-05
2.62756e-05
2.62756e-05
2.62756e-05
2.62756e-05
2.62756e-05
2.62756e-05
2.62756e-05
2.62756e-05
2.62756e-05
2.62756e-05
8.09596e-05
6.37649e-05
5.88324e-05
5.75391e-05
5.74684e-05
5.81061e-05
5.90067e-05
6.00624e-05
6.12073e-05
6.22836e-05
6.3292e-05
6.43463e-05
6.54244e-05
6.65187e-05
6.76644e-05
6.89002e-05
7.00242e-05
7.11459e-05
7.22608e-05
7.33674e-05
7.44222e-05
7.54712e-05
7.64963e-05
7.72499e-05
7.80468e-05
7.90855e-05
8.08323e-05
7.9729e-05
7.34578e-05
6.40854e-05
5.16215e-05
3.82483e-05
3.00887e-05
2.72567e-05
2.65202e-05
2.63339e-05
2.6289e-05
2.62785e-05
2.62762e-05
2.62757e-05
2.62756e-05
2.62756e-05
2.62756e-05
2.62756e-05
2.62756e-05
2.62756e-05
2.62756e-05
2.62756e-05
2.62756e-05
2.62756e-05
8.98594e-05
7.02763e-05
6.42718e-05
6.27261e-05
6.23582e-05
6.28684e-05
6.36413e-05
6.45401e-05
6.55132e-05
6.63445e-05
6.71712e-05
6.80334e-05
6.89273e-05
6.98282e-05
7.07352e-05
7.16171e-05
7.26035e-05
7.35908e-05
7.45712e-05
7.55417e-05
7.648e-05
7.74045e-05
7.82545e-05
7.88711e-05
7.9492e-05
8.03606e-05
8.14888e-05
7.92568e-05
7.25572e-05
6.30657e-05
5.05805e-05
3.75561e-05
2.98234e-05
2.71953e-05
2.65064e-05
2.6331e-05
2.62883e-05
2.62784e-05
2.62762e-05
2.62757e-05
2.62756e-05
2.62756e-05
2.62756e-05
2.62756e-05
2.62756e-05
2.62756e-05
2.62756e-05
2.62756e-05
2.62756e-05
2.62756e-05
8.91307e-05
7.03276e-05
6.53149e-05
6.50597e-05
6.56691e-05
6.63772e-05
6.73649e-05
6.83308e-05
6.92585e-05
7.00022e-05
7.07419e-05
7.14904e-05
7.22417e-05
7.2999e-05
7.37672e-05
7.44654e-05
7.51916e-05
7.60583e-05
7.69112e-05
7.77461e-05
7.85432e-05
7.93214e-05
7.9978e-05
8.04672e-05
8.09984e-05
8.15959e-05
8.16246e-05
7.85927e-05
7.1578e-05
6.19488e-05
4.94057e-05
3.67806e-05
2.95505e-05
2.71323e-05
2.64922e-05
2.6328e-05
2.62877e-05
2.62783e-05
2.62761e-05
2.62757e-05
2.62756e-05
2.62756e-05
2.62756e-05
2.62756e-05
2.62756e-05
2.62756e-05
2.62756e-05
2.62756e-05
2.62756e-05
2.62756e-05
7.48971e-05
6.11128e-05
6.01122e-05
6.35495e-05
6.6115e-05
6.80708e-05
6.96025e-05
7.09642e-05
7.21706e-05
7.32405e-05
7.41637e-05
7.49909e-05
7.57457e-05
7.64491e-05
7.70861e-05
7.75308e-05
7.80197e-05
7.87054e-05
7.94006e-05
8.00914e-05
8.07382e-05
8.13404e-05
8.18049e-05
8.21369e-05
8.23926e-05
8.24698e-05
8.11092e-05
7.76696e-05
7.04765e-05
6.07374e-05
4.81608e-05
3.59982e-05
2.92812e-05
2.70703e-05
2.64781e-05
2.6325e-05
2.62871e-05
2.62781e-05
2.62761e-05
2.62757e-05
2.62756e-05
2.62756e-05
2.62756e-05
2.62756e-05
2.62756e-05
2.62756e-05
2.62756e-05
2.62756e-05
2.62756e-05
2.62756e-05
3.73498e-05
4.47588e-05
5.02181e-05
5.72281e-05
6.29871e-05
6.69091e-05
6.97559e-05
7.19492e-05
7.35029e-05
7.48671e-05
7.6257e-05
7.73737e-05
7.83213e-05
7.91616e-05
7.98277e-05
8.0213e-05
8.05865e-05
8.11028e-05
8.16282e-05
8.21331e-05
8.26023e-05
8.30211e-05
8.32879e-05
8.34305e-05
8.34007e-05
8.27603e-05
8.07653e-05
7.65263e-05
6.92647e-05
5.93832e-05
4.68086e-05
3.52121e-05
2.90162e-05
2.70091e-05
2.64642e-05
2.6322e-05
2.62865e-05
2.6278e-05
2.62761e-05
2.62757e-05
2.62756e-05
2.62756e-05
2.62756e-05
2.62756e-05
2.62756e-05
2.62756e-05
2.62756e-05
2.62756e-05
2.62756e-05
2.62756e-05
2.96015e-05
3.51841e-05
4.02365e-05
4.72269e-05
5.49894e-05
6.1653e-05
6.67709e-05
7.02622e-05
7.2988e-05
7.50641e-05
7.66302e-05
7.79336e-05
7.89899e-05
7.98766e-05
8.05646e-05
8.12647e-05
8.19768e-05
8.25681e-05
8.30811e-05
8.3524e-05
8.38951e-05
8.41628e-05
8.42593e-05
8.41569e-05
8.35342e-05
8.22905e-05
8.00403e-05
7.51284e-05
6.77329e-05
5.77616e-05
4.52884e-05
3.43792e-05
2.87399e-05
2.69448e-05
2.64494e-05
2.63188e-05
2.62858e-05
2.62779e-05
2.62761e-05
2.62757e-05
2.62756e-05
2.62756e-05
2.62756e-05
2.62756e-05
2.62756e-05
2.62756e-05
2.62756e-05
2.62756e-05
2.62756e-05
2.62756e-05
2.7623e-05
3.08044e-05
3.40716e-05
3.85603e-05
4.46678e-05
5.17625e-05
5.87974e-05
6.46944e-05
6.92205e-05
7.25205e-05
7.50732e-05
7.70816e-05
7.8621e-05
7.98099e-05
8.07752e-05
8.15749e-05
8.22563e-05
8.28332e-05
8.33331e-05
8.3756e-05
8.40931e-05
8.42643e-05
8.42315e-05
8.39122e-05
8.31464e-05
8.16379e-05
7.87136e-05
7.33819e-05
6.57376e-05
5.57081e-05
4.34683e-05
3.34646e-05
2.8439e-05
2.68733e-05
2.64326e-05
2.63151e-05
2.62851e-05
2.62777e-05
2.6276e-05
2.62757e-05
2.62756e-05
2.62756e-05
2.62756e-05
2.62756e-05
2.62756e-05
2.62756e-05
2.62756e-05
2.62756e-05
2.62756e-05
2.62756e-05
2.69857e-05
2.88066e-05
3.09778e-05
3.36291e-05
3.72542e-05
4.20093e-05
4.78911e-05
5.43949e-05
6.06204e-05
6.60267e-05
7.02034e-05
7.3372e-05
7.57313e-05
7.75625e-05
7.90157e-05
8.01777e-05
8.11229e-05
8.18935e-05
8.25335e-05
8.30443e-05
8.34139e-05
8.35843e-05
8.34485e-05
8.29432e-05
8.20023e-05
8.02529e-05
7.66547e-05
7.09753e-05
6.32396e-05
5.30897e-05
4.13423e-05
3.23938e-05
2.81135e-05
2.67922e-05
2.64133e-05
2.63107e-05
2.62841e-05
2.62776e-05
2.6276e-05
2.62757e-05
2.62756e-05
2.62756e-05
2.62756e-05
2.62756e-05
2.62756e-05
2.62756e-05
2.62756e-05
2.62756e-05
2.62756e-05
2.62756e-05
2.67206e-05
2.78678e-05
2.927e-05
3.10636e-05
3.32607e-05
3.6178e-05
3.98529e-05
4.45033e-05
4.99814e-05
5.57423e-05
6.09856e-05
6.53512e-05
6.88491e-05
7.16867e-05
7.39602e-05
7.57965e-05
7.73018e-05
7.85407e-05
7.95689e-05
8.04226e-05
8.106e-05
8.14073e-05
8.13461e-05
8.07782e-05
7.97862e-05
7.77388e-05
7.36977e-05
6.77953e-05
5.99735e-05
4.98277e-05
3.88954e-05
3.11753e-05
2.77707e-05
2.67031e-05
2.63917e-05
2.63056e-05
2.6283e-05
2.62773e-05
2.6276e-05
2.62757e-05
2.62756e-05
2.62756e-05
2.62756e-05
2.62756e-05
2.62756e-05
2.62756e-05
2.62756e-05
2.62756e-05
2.62756e-05
2.62756e-05
2.6583e-05
2.73615e-05
2.83221e-05
2.95257e-05
3.10797e-05
3.30059e-05
3.54288e-05
3.85327e-05
4.22885e-05
4.66527e-05
5.13548e-05
5.59084e-05
6.00298e-05
6.35934e-05
6.66542e-05
6.92488e-05
7.14445e-05
7.33009e-05
7.48607e-05
7.61253e-05
7.70842e-05
7.76688e-05
7.77654e-05
7.72502e-05
7.62699e-05
7.39738e-05
6.96756e-05
6.375e-05
5.57698e-05
4.59044e-05
3.62046e-05
2.99697e-05
2.74271e-05
2.6611e-05
2.63685e-05
2.63e-05
2.62817e-05
2.6277e-05
2.62759e-05
2.62756e-05
2.62756e-05
2.62756e-05
2.62756e-05
2.62756e-05
2.62756e-05
2.62756e-05
2.62756e-05
2.62756e-05
2.62756e-05
2.62756e-05
2.64981e-05
2.70512e-05
2.77344e-05
2.85852e-05
2.96665e-05
3.10745e-05
3.28857e-05
3.49709e-05
3.76917e-05
4.08976e-05
4.45648e-05
4.84249e-05
5.22324e-05
5.58201e-05
5.91083e-05
6.20742e-05
6.47149e-05
6.70592e-05
6.90577e-05
7.07325e-05
7.20255e-05
7.28603e-05
7.31214e-05
7.26674e-05
7.1613e-05
6.9028e-05
6.45645e-05
5.85093e-05
5.06084e-05
4.14595e-05
3.35444e-05
2.88661e-05
2.71001e-05
2.65216e-05
2.63451e-05
2.62942e-05
2.62803e-05
2.62767e-05
2.62758e-05
2.62756e-05
2.62756e-05
2.62756e-05
2.62756e-05
2.62756e-05
2.62756e-05
2.62756e-05
2.62756e-05
2.62756e-05
2.62756e-05
2.62756e-05
2.64391e-05
2.68401e-05
2.73344e-05
2.79489e-05
2.87231e-05
2.96988e-05
3.09731e-05
3.26672e-05
3.46504e-05
3.71596e-05
4.00665e-05
4.31681e-05
4.63763e-05
4.95688e-05
5.26488e-05
5.55517e-05
5.82415e-05
6.06824e-05
6.28087e-05
6.46022e-05
6.60079e-05
6.69205e-05
6.71826e-05
6.67309e-05
6.55079e-05
6.25933e-05
5.81332e-05
5.21276e-05
4.46732e-05
3.68928e-05
3.09642e-05
2.79442e-05
2.68181e-05
2.64417e-05
2.63235e-05
2.62887e-05
2.6279e-05
2.62764e-05
2.62758e-05
2.62756e-05
2.62756e-05
2.62756e-05
2.62756e-05
2.62756e-05
2.62756e-05
2.62756e-05
2.62756e-05
2.62756e-05
2.62756e-05
2.62756e-05
2.63944e-05
2.66827e-05
2.70351e-05
2.74688e-05
2.80107e-05
2.87028e-05
2.96096e-05
3.0824e-05
3.24521e-05
3.43432e-05
3.65611e-05
3.90858e-05
4.17362e-05
4.44478e-05
4.71285e-05
4.97102e-05
5.21478e-05
5.43948e-05
5.63916e-05
5.80814e-05
5.93434e-05
6.00818e-05
6.01734e-05
5.96079e-05
5.80293e-05
5.4946e-05
5.05926e-05
4.49563e-05
3.85852e-05
3.28391e-05
2.89521e-05
2.72403e-05
2.65986e-05
2.63769e-05
2.63055e-05
2.62839e-05
2.62778e-05
2.62761e-05
2.62757e-05
2.62756e-05
2.62756e-05
2.62756e-05
2.62756e-05
2.62756e-05
2.62756e-05
2.62756e-05
2.62756e-05
2.62756e-05
2.62756e-05
2.62756e-05
2.63589e-05
2.65601e-05
2.6806e-05
2.7109e-05
2.7488e-05
2.79724e-05
2.86051e-05
2.94179e-05
3.0512e-05
3.19752e-05
3.37671e-05
3.56901e-05
3.78119e-05
4.00107e-05
4.22066e-05
4.43448e-05
4.63661e-05
4.8217e-05
4.98395e-05
5.11666e-05
5.21063e-05
5.25565e-05
5.23668e-05
5.15406e-05
4.96036e-05
4.65971e-05
4.26198e-05
3.79303e-05
3.33102e-05
2.95744e-05
2.7615e-05
2.67716e-05
2.64459e-05
2.63302e-05
2.6292e-05
2.62802e-05
2.62768e-05
2.62759e-05
2.62756e-05
2.62756e-05
2.62756e-05
2.62756e-05
2.62756e-05
2.62756e-05
2.62756e-05
2.62756e-05
2.62756e-05
2.62756e-05
2.62756e-05
2.62756e-05
2.63319e-05
2.64679e-05
2.66346e-05
2.68405e-05
2.70918e-05
2.74067e-05
2.78105e-05
2.83419e-05
2.90538e-05
3.00087e-05
3.1251e-05
3.27668e-05
3.43592e-05
3.5993e-05
3.76577e-05
3.92812e-05
4.07918e-05
4.21448e-05
4.32821e-05
4.41294e-05
4.46149e-05
4.46491e-05
4.42356e-05
4.3107e-05
4.11826e-05
3.85893e-05
3.54139e-05
3.21527e-05
2.93658e-05
2.76928e-05
2.68603e-05
2.64967e-05
2.6353e-05
2.63009e-05
2.62833e-05
2.62778e-05
2.62762e-05
2.62757e-05
2.62756e-05
2.62756e-05
2.62756e-05
2.62756e-05
2.62756e-05
2.62756e-05
2.62756e-05
2.62756e-05
2.62756e-05
2.62756e-05
2.62756e-05
2.62756e-05
2.63103e-05
2.63953e-05
2.65001e-05
2.6629e-05
2.67878e-05
2.6985e-05
2.72336e-05
2.75534e-05
2.79723e-05
2.85244e-05
2.92398e-05
3.01322e-05
3.11906e-05
3.23641e-05
3.35646e-05
3.4616e-05
3.55811e-05
3.64077e-05
3.70425e-05
3.74302e-05
3.7511e-05
3.72941e-05
3.66299e-05
3.54834e-05
3.39584e-05
3.20468e-05
3.00777e-05
2.84767e-05
2.7401e-05
2.6791e-05
2.64901e-05
2.63577e-05
2.63047e-05
2.62852e-05
2.62786e-05
2.62764e-05
2.62758e-05
2.62756e-05
2.62756e-05
2.62756e-05
2.62756e-05
2.62756e-05
2.62756e-05
2.62756e-05
2.62756e-05
2.62756e-05
2.62756e-05
2.62756e-05
2.62756e-05
2.62756e-05
2.62936e-05
2.63407e-05
2.64011e-05
2.64768e-05
2.65698e-05
2.66835e-05
2.68225e-05
2.69943e-05
2.72072e-05
2.74748e-05
2.78134e-05
2.82349e-05
2.87408e-05
2.93139e-05
2.99181e-05
3.05088e-05
3.10395e-05
3.14644e-05
3.17248e-05
3.17928e-05
3.16905e-05
3.13406e-05
3.07263e-05
2.99317e-05
2.90435e-05
2.81814e-05
2.74576e-05
2.69329e-05
2.66043e-05
2.64246e-05
2.63375e-05
2.62993e-05
2.6284e-05
2.62784e-05
2.62764e-05
2.62758e-05
2.62756e-05
2.62756e-05
2.62756e-05
2.62756e-05
2.62756e-05
2.62756e-05
2.62756e-05
2.62756e-05
2.62756e-05
2.62756e-05
2.62756e-05
2.62756e-05
2.62756e-05
2.62756e-05
2.62812e-05
2.63008e-05
2.63304e-05
2.63685e-05
2.6415e-05
2.64696e-05
2.65333e-05
2.66075e-05
2.6695e-05
2.67993e-05
2.6925e-05
2.70757e-05
2.72521e-05
2.74491e-05
2.76533e-05
2.78455e-05
2.80044e-05
2.81104e-05
2.81482e-05
2.81244e-05
2.80175e-05
2.78133e-05
2.75451e-05
2.72497e-05
2.69637e-05
2.67199e-05
2.65363e-05
2.64141e-05
2.63423e-05
2.6305e-05
2.62875e-05
2.62801e-05
2.62772e-05
2.62761e-05
2.62757e-05
2.62756e-05
2.62756e-05
2.62756e-05
2.62756e-05
2.62756e-05
2.62756e-05
2.62756e-05
2.62756e-05
2.62756e-05
2.62756e-05
2.62756e-05
2.62756e-05
2.62756e-05
2.62756e-05
2.62756e-05
2.62758e-05
2.628e-05
2.62879e-05
2.62989e-05
2.63124e-05
2.63266e-05
2.63421e-05
2.63596e-05
2.63787e-05
2.63998e-05
2.64235e-05
2.64504e-05
2.64804e-05
2.65125e-05
2.65436e-05
2.65703e-05
2.65888e-05
2.65961e-05
2.65907e-05
2.65717e-05
2.65386e-05
2.64949e-05
2.64465e-05
2.63994e-05
2.63586e-05
2.63271e-05
2.63049e-05
2.62909e-05
2.6283e-05
2.62789e-05
2.6277e-05
2.62761e-05
2.62757e-05
2.62756e-05
2.62756e-05
2.62756e-05
2.62756e-05
2.62756e-05
2.62756e-05
2.62756e-05
2.62756e-05
2.62756e-05
2.62756e-05
2.62756e-05
2.62756e-05
2.62756e-05
2.62756e-05
2.62756e-05
2.62756e-05
2.62756e-05
)
;

boundaryField
{
    AXIS
    {
        type            empty;
    }
    OUTLET
    {
        type            calculated;
        value           uniform 2.62756e-05;
    }
    COFLOW
    {
        type            calculated;
        value           uniform 2.62756e-05;
    }
    PILOT
    {
        type            calculated;
        value           uniform 0.000100126;
    }
    FUEL
    {
        type            calculated;
        value           uniform 2.61542e-05;
    }
    WALL
    {
        type            calculated;
        value           nonuniform List<scalar> 
50
(
2.62758e-05
2.628e-05
2.62879e-05
2.62989e-05
2.63124e-05
2.63266e-05
2.63421e-05
2.63596e-05
2.63787e-05
2.63998e-05
2.64235e-05
2.64504e-05
2.64804e-05
2.65125e-05
2.65436e-05
2.65703e-05
2.65888e-05
2.65961e-05
2.65907e-05
2.65717e-05
2.65386e-05
2.64949e-05
2.64465e-05
2.63994e-05
2.63586e-05
2.63271e-05
2.63049e-05
2.62909e-05
2.6283e-05
2.62789e-05
2.6277e-05
2.62761e-05
2.62757e-05
2.62756e-05
2.62756e-05
2.62756e-05
2.62756e-05
2.62756e-05
2.62756e-05
2.62756e-05
2.62756e-05
2.62756e-05
2.62756e-05
2.62756e-05
2.62756e-05
2.62756e-05
2.62756e-05
2.62756e-05
2.62756e-05
2.62756e-05
)
;
    }
    front
    {
        type            wedge;
    }
    back
    {
        type            wedge;
    }
}


// ************************************************************************* //
