/*--------------------------------*- C++ -*----------------------------------*\
| =========                 |                                                 |
| \\      /  F ield         | OpenFOAM: The Open Source CFD Toolbox           |
|  \\    /   O peration     | Version:  2.4.x                                 |
|   \\  /    A nd           | Web:      www.OpenFOAM.org                      |
|    \\/     M anipulation  |                                                 |
\*---------------------------------------------------------------------------*/
FoamFile
{
    version     2.0;
    format      ascii;
    class       volScalarField;
    location    "0.04";
    object      thermo:mu;
}
// * * * * * * * * * * * * * * * * * * * * * * * * * * * * * * * * * * * * * //

dimensions      [1 -1 -1 0 0 0 0];

internalField   nonuniform List<scalar> 
1250
(
1.88882e-05
2.08067e-05
2.27421e-05
2.45085e-05
2.61588e-05
2.76892e-05
2.91197e-05
3.04642e-05
3.17909e-05
3.32968e-05
3.47621e-05
3.61502e-05
3.75298e-05
3.88898e-05
4.021e-05
4.15272e-05
4.27636e-05
4.39108e-05
4.50324e-05
4.61434e-05
4.72437e-05
4.83229e-05
4.94702e-05
5.0379e-05
5.11689e-05
5.25108e-05
5.45777e-05
5.72166e-05
5.39297e-05
4.6782e-05
3.80411e-05
2.79831e-05
2.13945e-05
1.89621e-05
1.83407e-05
1.81874e-05
1.81509e-05
1.81425e-05
1.81407e-05
1.81403e-05
1.81402e-05
1.81402e-05
1.81402e-05
1.81402e-05
1.81402e-05
1.81402e-05
1.81402e-05
1.81402e-05
1.81402e-05
1.81402e-05
1.90082e-05
2.11346e-05
2.31304e-05
2.49248e-05
2.65728e-05
2.80793e-05
2.94717e-05
3.07735e-05
3.22419e-05
3.37406e-05
3.51874e-05
3.65574e-05
3.79233e-05
3.92575e-05
4.05651e-05
4.18669e-05
4.30807e-05
4.42094e-05
4.53191e-05
4.64163e-05
4.75061e-05
4.85735e-05
4.97036e-05
5.0599e-05
5.13777e-05
5.269e-05
5.46943e-05
5.72115e-05
5.38411e-05
4.6719e-05
3.79704e-05
2.79319e-05
2.13736e-05
1.89571e-05
1.83396e-05
1.81872e-05
1.81508e-05
1.81425e-05
1.81407e-05
1.81403e-05
1.81402e-05
1.81402e-05
1.81402e-05
1.81402e-05
1.81402e-05
1.81402e-05
1.81402e-05
1.81402e-05
1.81402e-05
1.81402e-05
1.93829e-05
2.20403e-05
2.41597e-05
2.59812e-05
2.7572e-05
2.89555e-05
3.03204e-05
3.18116e-05
3.32912e-05
3.47478e-05
3.6148e-05
3.74764e-05
3.87883e-05
4.00768e-05
4.13565e-05
4.26167e-05
4.37784e-05
4.4871e-05
4.59498e-05
4.70201e-05
4.80829e-05
4.9121e-05
5.02133e-05
5.10732e-05
5.18391e-05
5.30886e-05
5.49402e-05
5.71851e-05
5.36255e-05
4.65649e-05
3.77885e-05
2.77981e-05
2.1319e-05
1.89442e-05
1.83368e-05
1.81865e-05
1.81507e-05
1.81425e-05
1.81407e-05
1.81403e-05
1.81402e-05
1.81402e-05
1.81402e-05
1.81402e-05
1.81402e-05
1.81402e-05
1.81402e-05
1.81402e-05
1.81402e-05
1.81402e-05
2.04969e-05
2.40213e-05
2.62004e-05
2.77956e-05
2.92198e-05
3.07129e-05
3.21518e-05
3.35479e-05
3.49406e-05
3.63209e-05
3.76269e-05
3.88649e-05
4.01028e-05
4.13314e-05
4.25444e-05
4.37378e-05
4.48228e-05
4.58632e-05
4.68984e-05
4.7928e-05
4.89409e-05
4.99328e-05
5.09589e-05
5.17763e-05
5.25263e-05
5.36648e-05
5.52884e-05
5.70375e-05
5.32722e-05
4.63225e-05
3.74882e-05
2.75775e-05
2.1229e-05
1.89231e-05
1.83322e-05
1.81855e-05
1.81505e-05
1.81424e-05
1.81407e-05
1.81403e-05
1.81402e-05
1.81402e-05
1.81402e-05
1.81402e-05
1.81402e-05
1.81402e-05
1.81402e-05
1.81402e-05
1.81402e-05
1.81402e-05
2.45943e-05
2.85153e-05
2.96608e-05
3.1011e-05
3.22514e-05
3.34332e-05
3.46454e-05
3.58842e-05
3.7139e-05
3.84032e-05
3.95592e-05
4.06941e-05
4.18242e-05
4.29455e-05
4.40667e-05
4.51908e-05
4.618e-05
4.71606e-05
4.81308e-05
4.90963e-05
5.00388e-05
5.09616e-05
5.19068e-05
5.26529e-05
5.33693e-05
5.43954e-05
5.58079e-05
5.66712e-05
5.281e-05
4.59592e-05
3.70711e-05
2.72755e-05
2.11064e-05
1.88946e-05
1.83259e-05
1.81842e-05
1.81502e-05
1.81424e-05
1.81407e-05
1.81403e-05
1.81402e-05
1.81402e-05
1.81402e-05
1.81402e-05
1.81402e-05
1.81402e-05
1.81402e-05
1.81402e-05
1.81402e-05
1.81402e-05
4.27909e-05
3.64937e-05
3.54391e-05
3.56874e-05
3.63406e-05
3.71396e-05
3.80593e-05
3.90719e-05
4.00866e-05
4.10779e-05
4.19687e-05
4.28858e-05
4.38169e-05
4.48521e-05
4.58844e-05
4.68985e-05
4.77973e-05
4.86943e-05
4.95846e-05
5.04694e-05
5.13256e-05
5.21664e-05
5.301e-05
5.36525e-05
5.43081e-05
5.52152e-05
5.66095e-05
5.65249e-05
5.22736e-05
4.54616e-05
3.65379e-05
2.69014e-05
2.09562e-05
1.88598e-05
1.83184e-05
1.81825e-05
1.81499e-05
1.81423e-05
1.81406e-05
1.81403e-05
1.81402e-05
1.81402e-05
1.81402e-05
1.81402e-05
1.81402e-05
1.81402e-05
1.81402e-05
1.81402e-05
1.81402e-05
1.81402e-05
5.73144e-05
4.50376e-05
4.14814e-05
4.05524e-05
4.05063e-05
4.09726e-05
4.16287e-05
4.23965e-05
4.32285e-05
4.40095e-05
4.47402e-05
4.55027e-05
4.62806e-05
4.70696e-05
4.78949e-05
4.87831e-05
4.9589e-05
5.03925e-05
5.11903e-05
5.19814e-05
5.27344e-05
5.34827e-05
5.42132e-05
5.47486e-05
5.53124e-05
5.60379e-05
5.72321e-05
5.62973e-05
5.16527e-05
4.4842e-05
3.58951e-05
2.64679e-05
2.07851e-05
1.88202e-05
1.83097e-05
1.81806e-05
1.81495e-05
1.81422e-05
1.81406e-05
1.81403e-05
1.81402e-05
1.81402e-05
1.81402e-05
1.81402e-05
1.81402e-05
1.81402e-05
1.81402e-05
1.81402e-05
1.81402e-05
1.81402e-05
6.34994e-05
4.95846e-05
4.53128e-05
4.42278e-05
4.39828e-05
4.43671e-05
4.49383e-05
4.5597e-05
4.63068e-05
4.69115e-05
4.75113e-05
4.81356e-05
4.87816e-05
4.94317e-05
5.00853e-05
5.07187e-05
5.1425e-05
5.21313e-05
5.28318e-05
5.35246e-05
5.41935e-05
5.48522e-05
5.54567e-05
5.58934e-05
5.63296e-05
5.69331e-05
5.76658e-05
5.59309e-05
5.09897e-05
4.41058e-05
3.51547e-05
2.59843e-05
2.06008e-05
1.87777e-05
1.83002e-05
1.81786e-05
1.81491e-05
1.81422e-05
1.81406e-05
1.81403e-05
1.81402e-05
1.81402e-05
1.81402e-05
1.81402e-05
1.81402e-05
1.81402e-05
1.81402e-05
1.81402e-05
1.81402e-05
1.81402e-05
6.29119e-05
4.94487e-05
4.59246e-05
4.57995e-05
4.6281e-05
4.6822e-05
4.75577e-05
4.82723e-05
4.89554e-05
4.95015e-05
5.00425e-05
5.05877e-05
5.11331e-05
5.16813e-05
5.2236e-05
5.2738e-05
5.32586e-05
5.38782e-05
5.44871e-05
5.50824e-05
5.565e-05
5.62036e-05
5.66692e-05
5.70148e-05
5.7388e-05
5.77891e-05
5.772e-05
5.54255e-05
5.02702e-05
4.32994e-05
3.43206e-05
2.54428e-05
2.04114e-05
1.8734e-05
1.82903e-05
1.81765e-05
1.81486e-05
1.81421e-05
1.81406e-05
1.81403e-05
1.81402e-05
1.81402e-05
1.81402e-05
1.81402e-05
1.81402e-05
1.81402e-05
1.81402e-05
1.81402e-05
1.81402e-05
1.81402e-05
5.25904e-05
4.27133e-05
4.20545e-05
4.45906e-05
4.64912e-05
4.79437e-05
4.90825e-05
5.00917e-05
5.09831e-05
5.17719e-05
5.24519e-05
5.30597e-05
5.36132e-05
5.41272e-05
5.45898e-05
5.49097e-05
5.52602e-05
5.57502e-05
5.62462e-05
5.6738e-05
5.71977e-05
5.76246e-05
5.79522e-05
5.81842e-05
5.83556e-05
5.83763e-05
5.73163e-05
5.47344e-05
4.94654e-05
4.24255e-05
3.34384e-05
2.48969e-05
2.02245e-05
1.8691e-05
1.82806e-05
1.81744e-05
1.81482e-05
1.8142e-05
1.81406e-05
1.81403e-05
1.81402e-05
1.81402e-05
1.81402e-05
1.81402e-05
1.81402e-05
1.81402e-05
1.81402e-05
1.81402e-05
1.81402e-05
1.81402e-05
2.58399e-05
3.10388e-05
3.49172e-05
3.99541e-05
4.41346e-05
4.70019e-05
4.90916e-05
5.07065e-05
5.18551e-05
5.28609e-05
5.38793e-05
5.46998e-05
5.53955e-05
5.60108e-05
5.64978e-05
5.67798e-05
5.70511e-05
5.74219e-05
5.77976e-05
5.81576e-05
5.84915e-05
5.87884e-05
5.89756e-05
5.9072e-05
5.90366e-05
5.85362e-05
5.70309e-05
5.38854e-05
4.85823e-05
4.14501e-05
3.24819e-05
2.43488e-05
2.00406e-05
1.86486e-05
1.82709e-05
1.81724e-05
1.81478e-05
1.81419e-05
1.81406e-05
1.81403e-05
1.81402e-05
1.81402e-05
1.81402e-05
1.81402e-05
1.81402e-05
1.81402e-05
1.81402e-05
1.81402e-05
1.81402e-05
1.81402e-05
2.04468e-05
2.433e-05
2.78626e-05
3.27896e-05
3.83263e-05
4.31318e-05
4.68394e-05
4.93907e-05
5.13853e-05
5.29092e-05
5.40612e-05
5.50194e-05
5.57957e-05
5.64462e-05
5.6951e-05
5.74611e-05
5.7977e-05
5.84052e-05
5.87755e-05
5.90945e-05
5.93612e-05
5.95523e-05
5.96193e-05
5.95408e-05
5.90813e-05
5.8155e-05
5.64687e-05
5.28529e-05
4.74703e-05
4.02841e-05
3.1409e-05
2.37685e-05
1.98489e-05
1.8604e-05
1.82607e-05
1.81701e-05
1.81473e-05
1.81418e-05
1.81405e-05
1.81403e-05
1.81402e-05
1.81402e-05
1.81402e-05
1.81402e-05
1.81402e-05
1.81402e-05
1.81402e-05
1.81402e-05
1.81402e-05
1.81402e-05
1.90742e-05
2.12823e-05
2.35552e-05
2.66884e-05
3.09772e-05
3.6007e-05
4.10484e-05
4.53026e-05
4.85776e-05
5.09812e-05
5.28438e-05
5.43118e-05
5.54388e-05
5.63106e-05
5.70185e-05
5.76042e-05
5.81026e-05
5.85237e-05
5.88879e-05
5.91957e-05
5.9441e-05
5.95662e-05
5.95427e-05
5.93105e-05
5.8749e-05
5.7634e-05
5.54716e-05
5.15683e-05
4.60271e-05
3.88115e-05
3.01274e-05
2.31317e-05
1.96401e-05
1.85544e-05
1.8249e-05
1.81676e-05
1.81468e-05
1.81417e-05
1.81405e-05
1.81403e-05
1.81402e-05
1.81402e-05
1.81402e-05
1.81402e-05
1.81402e-05
1.81402e-05
1.81402e-05
1.81402e-05
1.81402e-05
1.81402e-05
1.86324e-05
1.98953e-05
2.14029e-05
2.32469e-05
2.57746e-05
2.91046e-05
3.32515e-05
3.78792e-05
4.23471e-05
4.62401e-05
4.92559e-05
5.1552e-05
5.32672e-05
5.46015e-05
5.5662e-05
5.6511e-05
5.72022e-05
5.77662e-05
5.82349e-05
5.86098e-05
5.88824e-05
5.90108e-05
5.89164e-05
5.85522e-05
5.78671e-05
5.65835e-05
5.3948e-05
4.98131e-05
4.42244e-05
3.69403e-05
2.86342e-05
2.23868e-05
1.94143e-05
1.84982e-05
1.82357e-05
1.81645e-05
1.81461e-05
1.81416e-05
1.81405e-05
1.81403e-05
1.81402e-05
1.81402e-05
1.81402e-05
1.81402e-05
1.81402e-05
1.81402e-05
1.81402e-05
1.81402e-05
1.81402e-05
1.81402e-05
1.84487e-05
1.9244e-05
2.02168e-05
2.14624e-05
2.29902e-05
2.5023e-05
2.75915e-05
3.08571e-05
3.47301e-05
3.8836e-05
4.25983e-05
4.57383e-05
4.82579e-05
5.03071e-05
5.19527e-05
5.32845e-05
5.43783e-05
5.52801e-05
5.603e-05
5.66543e-05
5.71224e-05
5.73806e-05
5.73422e-05
5.69346e-05
5.62155e-05
5.47233e-05
5.17826e-05
4.7507e-05
4.18714e-05
3.46195e-05
2.69204e-05
2.15397e-05
1.91766e-05
1.84365e-05
1.82207e-05
1.8161e-05
1.81453e-05
1.81414e-05
1.81405e-05
1.81403e-05
1.81402e-05
1.81402e-05
1.81402e-05
1.81402e-05
1.81402e-05
1.81402e-05
1.81402e-05
1.81402e-05
1.81402e-05
1.81402e-05
1.83532e-05
1.88929e-05
1.95591e-05
2.03943e-05
2.14735e-05
2.28128e-05
2.45002e-05
2.6667e-05
2.92984e-05
3.23716e-05
3.57035e-05
3.89514e-05
4.19061e-05
4.44671e-05
4.66666e-05
4.85347e-05
5.0119e-05
5.14612e-05
5.25912e-05
5.35097e-05
5.42085e-05
5.46374e-05
5.47132e-05
5.43445e-05
5.3636e-05
5.19716e-05
4.88606e-05
4.45881e-05
3.88545e-05
3.18432e-05
2.50408e-05
2.07024e-05
1.89383e-05
1.83726e-05
1.82046e-05
1.81571e-05
1.81444e-05
1.81412e-05
1.81404e-05
1.81402e-05
1.81402e-05
1.81402e-05
1.81402e-05
1.81402e-05
1.81402e-05
1.81402e-05
1.81402e-05
1.81402e-05
1.81402e-05
1.81402e-05
1.82944e-05
1.86778e-05
1.91515e-05
1.97416e-05
2.0492e-05
2.14698e-05
2.2729e-05
2.41808e-05
2.6079e-05
2.83222e-05
3.08985e-05
3.36237e-05
3.63265e-05
3.88863e-05
4.1242e-05
4.3372e-05
4.52694e-05
4.6954e-05
4.8393e-05
4.96013e-05
5.05363e-05
5.11421e-05
5.13341e-05
5.10094e-05
5.02495e-05
4.83849e-05
4.51716e-05
4.08175e-05
3.51735e-05
2.87163e-05
2.31872e-05
1.99364e-05
1.87116e-05
1.83107e-05
1.81884e-05
1.81531e-05
1.81435e-05
1.8141e-05
1.81404e-05
1.81402e-05
1.81402e-05
1.81402e-05
1.81402e-05
1.81402e-05
1.81402e-05
1.81402e-05
1.81402e-05
1.81402e-05
1.81402e-05
1.81402e-05
1.82535e-05
1.85314e-05
1.88741e-05
1.93002e-05
1.98372e-05
2.05144e-05
2.13993e-05
2.25769e-05
2.39574e-05
2.57072e-05
2.77396e-05
2.99155e-05
3.21751e-05
3.44336e-05
3.66223e-05
3.86936e-05
4.06194e-05
4.2371e-05
4.38989e-05
4.5188e-05
4.61984e-05
4.68556e-05
4.70457e-05
4.67224e-05
4.58442e-05
4.37504e-05
4.05464e-05
3.62535e-05
3.0975e-05
2.5521e-05
2.13931e-05
1.92969e-05
1.85162e-05
1.82553e-05
1.81734e-05
1.81493e-05
1.81425e-05
1.81408e-05
1.81403e-05
1.81402e-05
1.81402e-05
1.81402e-05
1.81402e-05
1.81402e-05
1.81402e-05
1.81402e-05
1.81402e-05
1.81402e-05
1.81402e-05
1.81402e-05
1.82226e-05
1.84223e-05
1.86666e-05
1.89673e-05
1.9343e-05
1.98231e-05
2.04524e-05
2.12956e-05
2.24273e-05
2.37433e-05
2.52894e-05
2.70531e-05
2.89098e-05
3.08156e-05
3.27062e-05
3.45337e-05
3.62654e-05
3.78671e-05
3.92942e-05
4.05046e-05
4.14101e-05
4.19408e-05
4.20072e-05
4.16018e-05
4.04697e-05
3.82629e-05
3.51614e-05
3.11744e-05
2.67033e-05
2.26964e-05
1.99961e-05
1.88088e-05
1.8364e-05
1.82104e-05
1.81609e-05
1.8146e-05
1.81417e-05
1.81406e-05
1.81403e-05
1.81402e-05
1.81402e-05
1.81402e-05
1.81402e-05
1.81402e-05
1.81402e-05
1.81402e-05
1.81402e-05
1.81402e-05
1.81402e-05
1.81402e-05
1.81979e-05
1.83374e-05
1.85078e-05
1.87178e-05
1.89806e-05
1.93165e-05
1.97553e-05
2.03193e-05
2.1079e-05
2.20957e-05
2.33422e-05
2.46818e-05
2.61626e-05
2.77004e-05
2.92399e-05
3.0743e-05
3.21677e-05
3.34758e-05
3.46254e-05
3.55677e-05
3.6236e-05
3.65566e-05
3.64218e-05
3.58341e-05
3.44588e-05
3.23314e-05
2.95305e-05
2.62455e-05
2.30242e-05
2.04279e-05
1.90687e-05
1.8484e-05
1.82582e-05
1.81781e-05
1.81516e-05
1.81434e-05
1.81411e-05
1.81404e-05
1.81402e-05
1.81402e-05
1.81402e-05
1.81402e-05
1.81402e-05
1.81402e-05
1.81402e-05
1.81402e-05
1.81402e-05
1.81402e-05
1.81402e-05
1.81402e-05
1.81792e-05
1.82735e-05
1.8389e-05
1.85317e-05
1.87059e-05
1.89242e-05
1.92042e-05
1.95727e-05
2.00667e-05
2.07295e-05
2.15923e-05
2.26461e-05
2.37544e-05
2.4893e-05
2.60549e-05
2.71898e-05
2.82475e-05
2.91966e-05
2.99955e-05
3.05914e-05
3.09332e-05
3.09573e-05
3.06662e-05
2.98725e-05
2.85217e-05
2.6706e-05
2.44893e-05
2.2219e-05
2.02832e-05
1.91226e-05
1.85454e-05
1.82934e-05
1.81939e-05
1.81577e-05
1.81456e-05
1.81417e-05
1.81406e-05
1.81403e-05
1.81402e-05
1.81402e-05
1.81402e-05
1.81402e-05
1.81402e-05
1.81402e-05
1.81402e-05
1.81402e-05
1.81402e-05
1.81402e-05
1.81402e-05
1.81402e-05
1.81643e-05
1.82232e-05
1.82958e-05
1.83851e-05
1.84952e-05
1.86319e-05
1.88042e-05
1.90259e-05
1.93164e-05
1.96993e-05
2.01957e-05
2.08152e-05
2.15503e-05
2.23661e-05
2.32012e-05
2.39332e-05
2.46058e-05
2.51823e-05
2.56253e-05
2.5896e-05
2.59525e-05
2.5801e-05
2.53374e-05
2.45377e-05
2.34754e-05
2.21454e-05
2.07774e-05
1.96663e-05
1.89202e-05
1.84974e-05
1.82889e-05
1.81971e-05
1.81604e-05
1.81469e-05
1.81423e-05
1.81408e-05
1.81404e-05
1.81402e-05
1.81402e-05
1.81402e-05
1.81402e-05
1.81402e-05
1.81402e-05
1.81402e-05
1.81402e-05
1.81402e-05
1.81402e-05
1.81402e-05
1.81402e-05
1.81402e-05
1.81527e-05
1.81853e-05
1.82272e-05
1.82796e-05
1.83441e-05
1.84229e-05
1.85192e-05
1.86383e-05
1.87859e-05
1.89714e-05
1.92062e-05
1.94985e-05
1.98495e-05
2.02471e-05
2.06665e-05
2.10767e-05
2.14454e-05
2.17406e-05
2.19216e-05
2.19689e-05
2.18977e-05
2.16546e-05
2.12278e-05
2.0676e-05
2.00595e-05
1.94614e-05
1.89595e-05
1.85957e-05
1.8368e-05
1.82435e-05
1.81831e-05
1.81566e-05
1.8146e-05
1.81421e-05
1.81408e-05
1.81404e-05
1.81402e-05
1.81402e-05
1.81402e-05
1.81402e-05
1.81402e-05
1.81402e-05
1.81402e-05
1.81402e-05
1.81402e-05
1.81402e-05
1.81402e-05
1.81402e-05
1.81402e-05
1.81402e-05
1.81441e-05
1.81577e-05
1.81782e-05
1.82046e-05
1.82368e-05
1.82747e-05
1.83188e-05
1.83702e-05
1.84308e-05
1.85031e-05
1.85903e-05
1.86948e-05
1.8817e-05
1.89536e-05
1.90952e-05
1.92285e-05
1.93387e-05
1.94122e-05
1.94384e-05
1.94219e-05
1.93477e-05
1.92061e-05
1.90202e-05
1.88153e-05
1.86171e-05
1.84481e-05
1.83208e-05
1.82362e-05
1.81865e-05
1.81606e-05
1.81485e-05
1.81433e-05
1.81413e-05
1.81406e-05
1.81403e-05
1.81402e-05
1.81402e-05
1.81402e-05
1.81402e-05
1.81402e-05
1.81402e-05
1.81402e-05
1.81402e-05
1.81402e-05
1.81402e-05
1.81402e-05
1.81402e-05
1.81402e-05
1.81402e-05
1.81402e-05
1.81404e-05
1.81433e-05
1.81487e-05
1.81564e-05
1.81657e-05
1.81756e-05
1.81863e-05
1.81984e-05
1.82116e-05
1.82263e-05
1.82427e-05
1.82613e-05
1.82821e-05
1.83044e-05
1.83259e-05
1.83445e-05
1.83573e-05
1.83623e-05
1.83586e-05
1.83454e-05
1.83224e-05
1.82922e-05
1.82586e-05
1.8226e-05
1.81978e-05
1.81759e-05
1.81605e-05
1.81508e-05
1.81453e-05
1.81425e-05
1.81412e-05
1.81406e-05
1.81403e-05
1.81402e-05
1.81402e-05
1.81402e-05
1.81402e-05
1.81402e-05
1.81402e-05
1.81402e-05
1.81402e-05
1.81402e-05
1.81402e-05
1.81402e-05
1.81402e-05
1.81402e-05
1.81402e-05
1.81402e-05
1.81402e-05
1.81402e-05
)
;

boundaryField
{
    AXIS
    {
        type            empty;
    }
    OUTLET
    {
        type            calculated;
        value           uniform 1.81402e-05;
    }
    COFLOW
    {
        type            calculated;
        value           uniform 1.81402e-05;
    }
    PILOT
    {
        type            calculated;
        value           uniform 7.09187e-05;
    }
    FUEL
    {
        type            calculated;
        value           uniform 1.81402e-05;
    }
    WALL
    {
        type            calculated;
        value           nonuniform List<scalar> 
50
(
1.81404e-05
1.81433e-05
1.81487e-05
1.81564e-05
1.81657e-05
1.81756e-05
1.81863e-05
1.81984e-05
1.82116e-05
1.82263e-05
1.82427e-05
1.82613e-05
1.82821e-05
1.83044e-05
1.83259e-05
1.83445e-05
1.83573e-05
1.83623e-05
1.83586e-05
1.83454e-05
1.83224e-05
1.82922e-05
1.82586e-05
1.8226e-05
1.81978e-05
1.81759e-05
1.81605e-05
1.81508e-05
1.81453e-05
1.81425e-05
1.81412e-05
1.81406e-05
1.81403e-05
1.81402e-05
1.81402e-05
1.81402e-05
1.81402e-05
1.81402e-05
1.81402e-05
1.81402e-05
1.81402e-05
1.81402e-05
1.81402e-05
1.81402e-05
1.81402e-05
1.81402e-05
1.81402e-05
1.81402e-05
1.81402e-05
1.81402e-05
)
;
    }
    front
    {
        type            wedge;
    }
    back
    {
        type            wedge;
    }
}


// ************************************************************************* //
