/*--------------------------------*- C++ -*----------------------------------*\
| =========                 |                                                 |
| \\      /  F ield         | OpenFOAM: The Open Source CFD Toolbox           |
|  \\    /   O peration     | Version:  2.4.x                                 |
|   \\  /    A nd           | Web:      www.OpenFOAM.org                      |
|    \\/     M anipulation  |                                                 |
\*---------------------------------------------------------------------------*/
FoamFile
{
    version     2.0;
    format      ascii;
    class       volVectorField;
    location    "0.04";
    object      U;
}
// * * * * * * * * * * * * * * * * * * * * * * * * * * * * * * * * * * * * * //

dimensions      [0 1 -1 0 0 0 0];

internalField   nonuniform List<vector> 
1250
(
(10.4545 -0.0355265 -7.20318e-15)
(11.9028 0.0624172 -4.00317e-14)
(12.6109 0.128696 -8.15665e-14)
(12.9511 0.156811 -1.79516e-13)
(13.0611 0.147616 -1.44974e-13)
(13.0207 0.166639 1.39531e-14)
(12.9122 0.111918 1.29198e-13)
(12.7816 0.144745 9.82987e-14)
(12.6294 0.105423 1.99207e-13)
(12.5185 0.14079 1.47848e-14)
(12.3666 0.134423 1.30285e-13)
(12.2164 0.0879178 3.02213e-13)
(12.0741 0.115229 4.91319e-13)
(11.9254 0.0766837 3.54621e-13)
(11.7996 0.0983753 5.99505e-13)
(11.6682 0.0666545 1.75678e-12)
(11.5481 0.0832711 4.04698e-13)
(11.3975 0.0578749 1.48842e-12)
(11.258 0.0681461 -3.93007e-12)
(11.1185 0.0633818 3.29138e-11)
(10.9625 0.060318 7.90915e-12)
(10.7884 0.063005 2.30914e-12)
(10.5742 0.0626224 2.13088e-12)
(10.2677 0.0728587 9.9791e-13)
(9.80958 0.0860839 2.16034e-12)
(9.2677 0.112976 1.94063e-12)
(8.52093 0.115253 1.45873e-12)
(7.26902 0.144781 5.76897e-13)
(5.66551 0.0982934 2.06987e-13)
(4.07559 0.0638637 6.3707e-14)
(2.87973 0.0387449 7.4046e-13)
(2.20284 0.0229455 9.65464e-13)
(1.89766 0.0145788 3.57982e-13)
(1.71716 0.00768628 2.02725e-13)
(1.62062 0.0052583 1.04308e-12)
(1.56675 0.00354989 1.72249e-12)
(1.53082 0.00246774 -1.18436e-11)
(1.50492 0.00172121 -2.62985e-12)
(1.48697 0.00119772 2.62477e-11)
(1.47355 0.000848575 5.79755e-12)
(1.46384 0.00060575 2.68183e-12)
(1.45642 0.000445427 1.45792e-12)
(1.45068 0.000338702 1.6471e-12)
(1.44601 0.00026444 -2.11028e-11)
(1.44223 0.000211334 -4.08245e-12)
(1.43902 0.000166685 -1.78781e-12)
(1.43639 0.000142476 -1.88691e-14)
(1.43395 0.000121892 4.8493e-13)
(1.4322 9.4958e-05 -2.82869e-12)
(1.43063 3.86495e-05 2.51752e-11)
(10.5664 -0.0966675 -1.96528e-14)
(12.0685 0.1928 -1.16894e-13)
(12.6784 0.356164 -2.37163e-13)
(12.9536 0.42749 -5.06588e-13)
(13.0185 0.462325 -3.0615e-13)
(12.9567 0.436463 9.71894e-14)
(12.8264 0.400417 3.08481e-13)
(12.6784 0.37913 2.85349e-13)
(12.5447 0.389464 4.30086e-13)
(12.4213 0.369276 6.96043e-15)
(12.2795 0.341924 4.26365e-13)
(12.1262 0.322504 6.98043e-13)
(11.9816 0.295847 1.44001e-12)
(11.8441 0.281345 7.37457e-13)
(11.7162 0.252857 1.92112e-12)
(11.5959 0.241516 3.80383e-12)
(11.467 0.214181 9.54943e-13)
(11.327 0.204746 2.70101e-12)
(11.1888 0.18958 -6.10162e-12)
(11.0551 0.182078 2.78626e-11)
(10.9042 0.179232 1.00802e-11)
(10.7345 0.180359 3.78625e-12)
(10.5264 0.178734 4.29521e-12)
(10.2261 0.192192 2.51626e-12)
(9.77939 0.225696 5.95711e-12)
(9.24757 0.285481 5.54069e-12)
(8.50409 0.389124 3.32228e-12)
(7.2815 0.367919 1.5983e-12)
(5.69606 0.254359 5.779e-13)
(4.11054 0.16401 1.78485e-13)
(2.90287 0.0998378 2.13798e-12)
(2.2141 0.0624521 2.74171e-12)
(1.902 0.0372624 9.71005e-13)
(1.71993 0.0197237 5.8346e-13)
(1.62211 0.0134012 3.00629e-12)
(1.56781 0.00905072 4.72123e-12)
(1.53159 0.00628241 -1.77601e-11)
(1.50551 0.00437597 -6.48746e-12)
(1.48745 0.0030467 4.61428e-11)
(1.47394 0.00215569 1.53167e-11)
(1.46418 0.00153936 7.42463e-12)
(1.45672 0.00113084 4.07634e-12)
(1.45096 0.000859565 4.39293e-12)
(1.44627 0.00067084 -3.04789e-11)
(1.44248 0.000535592 -1.07631e-11)
(1.43926 0.000439628 -4.48972e-12)
(1.43664 0.000375834 3.16933e-14)
(1.43419 0.000308824 1.3492e-12)
(1.43245 0.000250565 -7.80904e-12)
(1.43085 0.000131287 2.29523e-11)
(10.7109 -0.154708 -2.97181e-14)
(12.2885 0.437621 -2.27563e-13)
(12.7419 0.655903 -4.49063e-13)
(12.887 0.725953 -1.02035e-12)
(12.8645 0.719905 -5.20916e-13)
(12.7567 0.686351 5.52005e-13)
(12.5924 0.653446 7.53075e-13)
(12.4504 0.630502 5.21408e-13)
(12.3223 0.611059 8.21421e-13)
(12.1985 0.580726 -1.49094e-13)
(12.0612 0.538604 1.08557e-12)
(11.9131 0.494155 1.67282e-12)
(11.7751 0.45953 2.73027e-12)
(11.6487 0.421907 1.2941e-12)
(11.5311 0.39305 4.56194e-12)
(11.4205 0.362456 7.40045e-12)
(11.2954 0.332712 4.70039e-13)
(11.1641 0.306589 3.39803e-12)
(11.0364 0.288492 -6.26655e-12)
(10.911 0.276238 2.35777e-11)
(10.7679 0.270118 8.16904e-12)
(10.6061 0.273977 3.34954e-12)
(10.403 0.278451 7.76176e-12)
(10.1117 0.297714 4.29268e-12)
(9.67773 0.350681 1.17033e-11)
(9.15264 0.447594 9.29868e-12)
(8.41147 0.577481 5.51767e-12)
(7.20519 0.56482 2.48619e-12)
(5.65886 0.398091 8.78333e-13)
(4.10178 0.254209 2.69277e-13)
(2.90035 0.15952 3.81218e-12)
(2.21235 0.0985456 4.56422e-12)
(1.90105 0.0592126 1.31212e-12)
(1.71971 0.0317209 1.03016e-12)
(1.62237 0.0214285 5.28593e-12)
(1.56807 0.0144564 7.32233e-12)
(1.53194 0.0100221 -1.67682e-11)
(1.50587 0.00697537 -7.56849e-12)
(1.48783 0.00485995 4.8403e-11)
(1.47431 0.00343754 2.13137e-11)
(1.46455 0.00245638 1.12691e-11)
(1.45708 0.00180414 6.39176e-12)
(1.45131 0.00137124 6.28505e-12)
(1.44662 0.00106986 -2.41461e-11)
(1.44282 0.000853815 -1.53662e-11)
(1.43961 0.000691864 -6.86428e-12)
(1.43699 0.000590039 5.26202e-13)
(1.43456 0.000491039 2.0712e-12)
(1.43282 0.000383678 -1.27732e-11)
(1.43124 0.000189567 2.15624e-11)
(10.663 0.115605 -4.12151e-14)
(12.5154 0.917049 -4.62925e-13)
(12.6681 1.09471 -8.5305e-13)
(12.5942 1.08893 -2.11487e-12)
(12.4637 1.05874 -4.34673e-13)
(12.3091 1.00185 2.38728e-12)
(12.159 0.951868 1.3334e-12)
(12.0271 0.906383 7.15602e-13)
(11.9121 0.855371 1.24276e-12)
(11.8068 0.798763 -6.51619e-13)
(11.6887 0.735927 2.97013e-12)
(11.561 0.674452 3.49174e-12)
(11.4442 0.625354 4.45752e-12)
(11.3374 0.577433 2.00207e-12)
(11.2385 0.53559 1.17119e-11)
(11.1435 0.494086 1.0956e-11)
(11.0322 0.452104 -3.71575e-12)
(10.9159 0.418669 3.04861e-12)
(10.8031 0.395101 -4.11771e-12)
(10.6904 0.379276 1.15902e-11)
(10.5583 0.371654 -3.1742e-12)
(10.4067 0.376269 1.37081e-12)
(10.2121 0.383232 1.32249e-11)
(9.92986 0.410321 6.58708e-12)
(9.51213 0.481965 2.06085e-11)
(8.99668 0.609481 1.2345e-11)
(8.2501 0.796499 7.00117e-12)
(7.06335 0.77292 3.03418e-12)
(5.55465 0.54018 1.0395e-12)
(4.05061 0.346624 3.12113e-13)
(2.87567 0.218557 5.95186e-12)
(2.20396 0.136611 6.3446e-12)
(1.89533 0.0821561 1.30287e-12)
(1.71725 0.0442973 1.67185e-12)
(1.62194 0.0299188 8.29011e-12)
(1.56817 0.0201982 9.5374e-12)
(1.53248 0.0139946 -1.16769e-11)
(1.50665 0.00974383 -5.96114e-12)
(1.48877 0.00679132 4.41836e-11)
(1.47536 0.00480542 2.40146e-11)
(1.46566 0.003435 1.38125e-11)
(1.45824 0.00252269 8.17079e-12)
(1.45251 0.00191692 7.38611e-12)
(1.44785 0.00149519 -1.12492e-11)
(1.44408 0.00119239 -1.89866e-11)
(1.44089 0.000967721 -8.09538e-12)
(1.43831 0.000823876 1.86816e-12)
(1.43591 0.000683887 2.47395e-12)
(1.43419 0.00054698 -1.81402e-11)
(1.43263 0.000275568 1.47707e-11)
(10.0061 0.754098 -7.38562e-14)
(12.1688 1.79075 -1.31947e-12)
(11.9993 1.67009 -1.32176e-12)
(11.6898 1.51741 -1.16985e-12)
(11.5858 1.43076 -1.04701e-12)
(11.4758 1.32554 4.27174e-13)
(11.3898 1.22539 8.69803e-13)
(11.3257 1.13933 6.07987e-13)
(11.2752 1.0642 1.60553e-12)
(11.2203 0.986918 -1.50353e-12)
(11.1455 0.903206 8.09396e-12)
(11.0583 0.828955 6.26224e-12)
(10.9786 0.766376 6.29871e-12)
(10.9032 0.707139 4.15413e-12)
(10.8337 0.657257 6.75326e-12)
(10.7635 0.606314 9.94328e-12)
(10.6745 0.554835 2.98208e-12)
(10.5802 0.51629 5.15998e-12)
(10.488 0.487928 -2.11434e-12)
(10.3926 0.468952 9.25458e-12)
(10.2757 0.460083 4.8136e-12)
(10.138 0.466341 5.68705e-12)
(9.95465 0.477255 -2.39677e-12)
(9.68341 0.51627 1.09164e-11)
(9.28342 0.605288 1.4296e-11)
(8.77788 0.758735 1.18471e-11)
(8.03492 0.959581 7.38202e-12)
(6.87199 0.957908 3.1045e-12)
(5.39643 0.667603 1.02109e-12)
(3.96376 0.434177 2.88103e-13)
(2.83154 0.272281 3.72516e-12)
(2.18636 0.170923 7.79945e-12)
(1.88626 0.103293 8.22898e-12)
(1.71296 0.0562216 2.8252e-12)
(1.62082 0.03799 6.13485e-12)
(1.56799 0.0256913 1.16376e-11)
(1.53304 0.0177983 -1.18642e-11)
(1.50763 0.0124011 -8.90218e-12)
(1.49003 0.00864821 3.97463e-11)
(1.4768 0.00612288 2.42195e-11)
(1.46722 0.0043788 1.50275e-11)
(1.45989 0.00321584 9.3043e-12)
(1.45423 0.0024431 8.01551e-12)
(1.44963 0.0019047 -4.69093e-12)
(1.44591 0.00151781 -1.25833e-11)
(1.44277 0.00122894 -7.83652e-12)
(1.44022 0.00104425 -6.46458e-12)
(1.43787 0.000867558 2.27407e-12)
(1.43618 0.000687296 -2.47804e-11)
(1.43466 0.000341135 3.19997e-12)
(7.5872 0.408882 -3.455e-13)
(8.47222 2.30731 -3.02904e-12)
(9.42277 1.87917 -2.07719e-12)
(9.71576 1.76342 -2.03456e-12)
(9.99622 1.61277 -1.61094e-12)
(10.147 1.48519 -2.41618e-13)
(10.2592 1.38031 6.8916e-13)
(10.3402 1.28693 6.80235e-13)
(10.4029 1.20238 1.9113e-12)
(10.4307 1.11092 -1.42593e-12)
(10.4255 1.01681 8.50249e-12)
(10.4011 0.93809 7.39035e-12)
(10.3753 0.873166 7.6504e-12)
(10.3479 0.813386 5.87901e-12)
(10.3197 0.757548 6.56559e-12)
(10.2817 0.698036 9.41942e-12)
(10.2231 0.639387 5.10583e-12)
(10.1581 0.597945 6.43167e-12)
(10.0919 0.56618 -1.46365e-12)
(10.0186 0.545415 1.40018e-11)
(9.9213 0.536541 8.88916e-12)
(9.80147 0.545146 7.45594e-12)
(9.63213 0.561311 3.33107e-12)
(9.37446 0.613776 5.94225e-12)
(8.99196 0.722858 1.07703e-11)
(8.49085 0.904269 1.08461e-11)
(7.75296 1.09789 7.05631e-12)
(6.61728 1.06753 2.65352e-12)
(5.19707 0.776998 8.17364e-13)
(3.84693 0.515066 2.28229e-13)
(2.77161 0.321201 2.64249e-12)
(2.16009 0.201174 9.99434e-12)
(1.8743 0.122727 6.65354e-12)
(1.7069 0.0677212 3.12065e-12)
(1.61897 0.0457497 5.4379e-12)
(1.56747 0.0310302 7.90303e-12)
(1.5335 0.0215002 -1.10252e-11)
(1.50866 0.0149972 -9.29793e-12)
(1.49144 0.0104662 3.42855e-11)
(1.47847 0.00741571 2.26079e-11)
(1.46906 0.00530627 1.50731e-11)
(1.46185 0.00389709 9.7805e-12)
(1.45627 0.00295993 8.2934e-12)
(1.45175 0.00230648 -1.43783e-12)
(1.44809 0.00183625 -8.55249e-12)
(1.44501 0.00148451 -7.20881e-12)
(1.44253 0.00125908 -4.26447e-12)
(1.44023 0.00104549 2.23792e-12)
(1.43859 0.00083104 -2.49769e-11)
(1.43709 0.000415851 -2.91049e-12)
(4.00777 -0.654561 -1.71978e-12)
(5.1877 0.377228 -3.36016e-12)
(6.56535 1.0038 -2.56875e-12)
(7.43602 1.36597 -3.3126e-12)
(8.08564 1.42533 -1.61416e-12)
(8.52897 1.41338 4.93016e-13)
(8.8755 1.36922 1.42272e-12)
(9.13258 1.30776 1.29694e-12)
(9.33445 1.23742 2.35725e-12)
(9.47142 1.15063 -9.06869e-13)
(9.55846 1.06251 8.71593e-12)
(9.61613 0.99183 8.53941e-12)
(9.6586 0.933312 8.85432e-12)
(9.68562 0.878359 6.88752e-12)
(9.70298 0.824761 8.35553e-12)
(9.70501 0.763355 9.93007e-12)
(9.68498 0.700791 4.61151e-12)
(9.65558 0.658113 6.1476e-12)
(9.62044 0.625157 -9.82517e-13)
(9.57281 0.603926 1.49718e-11)
(9.4991 0.596617 8.91438e-12)
(9.40023 0.609194 7.0284e-12)
(9.24727 0.632191 6.95366e-12)
(9.00612 0.69902 5.32562e-12)
(8.64259 0.828205 1.05093e-11)
(8.14465 1.04495 1.04141e-11)
(7.41569 1.22486 6.23176e-12)
(6.31527 1.1523 1.60283e-12)
(4.96907 0.86474 4.59369e-13)
(3.70671 0.587789 1.65256e-13)
(2.697 0.363217 2.43338e-12)
(2.12758 0.225168 9.66934e-12)
(1.85922 0.139479 4.70818e-12)
(1.69937 0.0785328 2.9599e-12)
(1.61646 0.0530568 5.52709e-12)
(1.56664 0.0360955 4.94903e-12)
(1.53387 0.0250215 -8.71629e-12)
(1.50974 0.0174793 -7.89816e-12)
(1.49298 0.0122098 2.80555e-11)
(1.48032 0.00865961 1.97842e-11)
(1.47111 0.00620055 1.42013e-11)
(1.46405 0.00455436 9.66084e-12)
(1.45859 0.00345825 8.27383e-12)
(1.45416 0.00269327 -2.01275e-13)
(1.45058 0.00214206 -6.08671e-12)
(1.44757 0.00172823 -6.50331e-12)
(1.44516 0.00146289 -1.78556e-12)
(1.44293 0.00121398 2.01972e-12)
(1.44134 0.000965729 -2.14331e-11)
(1.43988 0.000483203 -5.36773e-12)
(2.80965 -2.40505 -4.54905e-12)
(2.81489 -0.86658 -3.26645e-12)
(4.13087 0.120308 -2.56187e-12)
(5.25585 0.744795 -5.30748e-12)
(6.16779 1.02238 1.46083e-13)
(6.84549 1.15876 3.70634e-12)
(7.39403 1.20612 3.28767e-12)
(7.81868 1.20682 2.41197e-12)
(8.15659 1.17555 2.96767e-12)
(8.40529 1.11337 3.6357e-13)
(8.5896 1.04762 6.19753e-12)
(8.73276 0.991587 9.48713e-12)
(8.84759 0.940553 9.91697e-12)
(8.93781 0.890312 7.3581e-12)
(9.00749 0.844472 1.2776e-11)
(9.05109 0.791942 1.01188e-11)
(9.07241 0.734908 3.08531e-13)
(9.08331 0.693033 4.7115e-12)
(9.08268 0.661656 1.43691e-13)
(9.06257 0.642587 1.10629e-11)
(9.01628 0.639321 4.08455e-12)
(8.9406 0.657282 5.69116e-12)
(8.80573 0.688711 9.38775e-12)
(8.5826 0.769174 5.2956e-12)
(8.24121 0.922992 1.35725e-11)
(7.74476 1.16869 1.03605e-11)
(7.02968 1.31874 4.72216e-12)
(5.97928 1.20983 -1.99059e-13)
(4.72208 0.927 3.53923e-14)
(3.54902 0.647467 1.4259e-13)
(2.60879 0.402296 2.67082e-12)
(2.08901 0.253029 6.79239e-12)
(1.84214 0.153833 1.439e-12)
(1.69083 0.0884892 2.71986e-12)
(1.61342 0.059847 6.16698e-12)
(1.56556 0.0408598 1.75412e-12)
(1.53417 0.0283449 -5.42185e-12)
(1.51086 0.0198375 -5.15353e-12)
(1.49464 0.0138734 2.14529e-11)
(1.48234 0.00985098 1.62151e-11)
(1.47337 0.00705934 1.27003e-11)
(1.46649 0.00518603 9.05221e-12)
(1.46116 0.00393682 7.98895e-12)
(1.45684 0.00306414 -3.88005e-13)
(1.45335 0.00243445 -4.72293e-12)
(1.45042 0.00195989 -5.78308e-12)
(1.44809 0.00165546 1.11007e-12)
(1.44593 0.00137251 1.40828e-12)
(1.4444 0.00109421 -1.45264e-11)
(1.44298 0.000549768 -5.70125e-12)
(2.66974 -1.45692 -4.20571e-12)
(1.60336 -1.13544 -2.19037e-12)
(2.39602 -0.575093 -1.98888e-12)
(3.49929 0.0901366 -3.41953e-12)
(4.48844 0.523874 8.19616e-13)
(5.28995 0.795392 3.97509e-12)
(5.96312 0.940576 5.35977e-12)
(6.50947 1.01144 3.39626e-12)
(6.95397 1.02829 3.70452e-12)
(7.29989 1.00384 1.68663e-12)
(7.57439 0.971054 8.0479e-12)
(7.7972 0.937855 1.39548e-11)
(7.9807 0.902759 1.09482e-11)
(8.13186 0.864954 8.01126e-12)
(8.25461 0.827576 1.08003e-11)
(8.34279 0.785685 5.93309e-12)
(8.40476 0.740924 3.31868e-12)
(8.45578 0.705014 4.90024e-12)
(8.49135 0.67808 1.43766e-12)
(8.49869 0.663597 1.11346e-11)
(8.48075 0.665523 7.71336e-12)
(8.43024 0.689434 7.39637e-12)
(8.31501 0.731895 3.15327e-12)
(8.11281 0.82875 4.38139e-12)
(7.79256 1.00872 9.2257e-12)
(7.29896 1.26349 9.17701e-12)
(6.60756 1.38415 2.26667e-12)
(5.62214 1.24481 -3.21213e-12)
(4.46584 0.970907 -2.55493e-13)
(3.3844 0.691223 2.118e-13)
(2.51541 0.433763 1.23461e-12)
(2.04962 0.277947 4.50758e-12)
(1.82292 0.165731 2.26598e-12)
(1.6817 0.0974592 3.01056e-12)
(1.60997 0.0660175 3.78664e-12)
(1.5643 0.0452799 1.53947e-12)
(1.53443 0.0314407 -3.57325e-12)
(1.51203 0.0220522 -5.49828e-12)
(1.4964 0.015444 1.3119e-11)
(1.48452 0.0109811 1.23642e-11)
(1.47581 0.00787664 1.08678e-11)
(1.46913 0.00578788 8.08006e-12)
(1.46394 0.00439237 7.45731e-12)
(1.45975 0.00341646 -1.63119e-12)
(1.45636 0.00271135 -4.05768e-12)
(1.45352 0.00217758 -4.98071e-12)
(1.45126 0.00183509 -9.52431e-13)
(1.44919 0.0015197 2.70568e-13)
(1.44773 0.00121464 -1.06003e-11)
(1.44635 0.000612797 -5.15701e-12)
(2.14557 -1.04579 -4.22557e-13)
(1.22588 -0.975894 -8.52849e-13)
(1.52382 -0.813973 -1.139e-12)
(2.27291 -0.361003 -1.93287e-12)
(3.16577 0.0775236 -1.55201e-13)
(3.96435 0.411706 1.55348e-12)
(4.67664 0.627962 2.69555e-12)
(5.28364 0.763401 3.31289e-12)
(5.79497 0.832829 4.66858e-12)
(6.21317 0.851925 3.50953e-12)
(6.55968 0.854107 6.19014e-12)
(6.84774 0.847423 9.45363e-12)
(7.09042 0.831883 9.75765e-12)
(7.29616 0.809512 7.77969e-12)
(7.46619 0.782391 9.47934e-12)
(7.59504 0.748965 7.16941e-12)
(7.69735 0.717855 5.26959e-12)
(7.78761 0.694085 5.43727e-12)
(7.85701 0.674166 3.23654e-12)
(7.89822 0.666401 7.00682e-12)
(7.90296 0.674307 8.46915e-12)
(7.87523 0.703864 8.51267e-12)
(7.78427 0.759204 5.82992e-12)
(7.60434 0.874408 4.98572e-12)
(7.30104 1.07358 7.29907e-12)
(6.82637 1.31284 7.93567e-12)
(6.16377 1.41265 2.44169e-12)
(5.25171 1.26799 -2.27377e-12)
(4.20397 0.999566 1.83711e-14)
(3.21511 0.719899 4.44554e-13)
(2.42316 0.457729 1.52408e-13)
(2.01035 0.295427 2.9964e-12)
(1.80287 0.175342 2.37737e-12)
(1.6722 0.105411 3.56895e-12)
(1.60619 0.0715465 1.7128e-12)
(1.56288 0.04933 6.35922e-13)
(1.53463 0.0342917 -5.82246e-13)
(1.51323 0.0241118 -5.26784e-12)
(1.49824 0.0169142 9.30384e-12)
(1.48679 0.012045 8.89572e-12)
(1.47837 0.00864905 8.98518e-12)
(1.4719 0.00635757 6.86258e-12)
(1.46687 0.00482314 6.67866e-12)
(1.4628 0.00374879 1.00466e-12)
(1.45952 0.00297161 -3.6945e-12)
(1.45678 0.0023804 -4.15496e-12)
(1.45462 0.00200098 -2.2427e-12)
(1.45263 0.00165483 -1.05747e-12)
(1.45124 0.00132661 -8.52871e-12)
(1.4499 0.000672677 -4.27019e-12)
(1.08284 -0.0798694 -3.46386e-14)
(1.29296 -0.425159 -7.57176e-14)
(1.25178 -0.599636 -4.09221e-13)
(1.57934 -0.476113 -9.83334e-13)
(2.20336 -0.208133 -9.58417e-13)
(2.88533 0.0900492 -7.88065e-13)
(3.55591 0.323302 2.90736e-14)
(4.16517 0.495651 4.00039e-12)
(4.69824 0.606724 6.98652e-12)
(5.15459 0.672103 5.67977e-12)
(5.54787 0.709441 6.00914e-12)
(5.88503 0.726273 7.06353e-12)
(6.17382 0.729715 8.16542e-12)
(6.42384 0.721298 6.76584e-12)
(6.63372 0.699329 8.55516e-12)
(6.80259 0.67227 7.06861e-12)
(6.94574 0.657958 6.24231e-12)
(7.07292 0.650043 5.93102e-12)
(7.17474 0.640832 4.77121e-12)
(7.24621 0.643019 4.68017e-12)
(7.28167 0.660334 1.14913e-11)
(7.27326 0.697581 9.84972e-12)
(7.20588 0.766046 7.04837e-12)
(7.05016 0.900028 5.783e-12)
(6.7609 1.10474 6.65538e-12)
(6.31758 1.32361 7.00414e-12)
(5.70369 1.40269 6.03275e-12)
(4.87484 1.27517 6.8865e-13)
(3.9343 1.01427 8.0295e-13)
(3.0402 0.736944 8.63754e-13)
(2.32996 0.47454 2.11258e-12)
(1.96998 0.306812 2.40231e-12)
(1.78184 0.183083 2.53442e-12)
(1.66219 0.112581 4.36894e-12)
(1.60203 0.076567 -4.44621e-13)
(1.56129 0.0530992 -4.54154e-13)
(1.53476 0.0369642 2.07177e-12)
(1.51444 0.0260643 -5.22e-12)
(1.50015 0.0183195 2.87882e-12)
(1.48918 0.0130684 5.69619e-12)
(1.48108 0.00939573 7.20551e-12)
(1.47483 0.00690934 5.44521e-12)
(1.46997 0.00523993 5.80715e-12)
(1.46605 0.00406934 2.69025e-12)
(1.46288 0.00322156 -3.91558e-12)
(1.46024 0.00257325 -3.27499e-12)
(1.45818 0.00215703 -3.15218e-12)
(1.45628 0.00178101 -2.49223e-12)
(1.45497 0.00143265 -7.61536e-12)
(1.45368 0.000730669 -3.19663e-12)
(0.964146 -0.0192927 3.92356e-14)
(1.17343 -0.181857 2.61946e-13)
(1.1505 -0.268512 -2.57173e-14)
(1.26292 -0.30153 -5.75902e-13)
(1.5724 -0.259558 -1.79903e-12)
(2.04771 -0.105025 -3.46529e-12)
(2.59627 0.0750536 -2.50823e-12)
(3.14406 0.237512 8.76125e-12)
(3.65882 0.366168 1.29098e-11)
(4.1241 0.461949 7.84801e-12)
(4.53281 0.524953 6.34294e-12)
(4.89558 0.561897 5.11069e-12)
(5.21455 0.58303 6.75279e-12)
(5.49502 0.589446 4.98068e-12)
(5.73583 0.580564 8.38118e-12)
(5.94374 0.571319 5.6322e-12)
(6.12797 0.572391 6.84312e-12)
(6.28884 0.576087 6.33805e-12)
(6.42093 0.577977 5.85244e-12)
(6.52132 0.590455 3.64949e-12)
(6.58714 0.617991 7.85308e-12)
(6.60355 0.667815 1.05396e-11)
(6.55883 0.748833 6.57128e-12)
(6.42399 0.896312 6.45988e-12)
(6.15749 1.10138 6.72524e-12)
(5.76762 1.30784 6.57694e-12)
(5.21147 1.37702 6.73208e-12)
(4.47198 1.26267 2.83707e-12)
(3.64383 1.01755 1.79785e-12)
(2.85051 0.742145 1.4401e-12)
(2.23118 0.484614 4.96316e-12)
(1.92598 0.312077 2.10919e-12)
(1.75814 0.189461 3.04061e-12)
(1.65094 0.119122 5.4453e-12)
(1.59716 0.08125 -1.17204e-12)
(1.55939 0.0567308 -1.35148e-12)
(1.53479 0.0395703 4.97987e-12)
(1.51571 0.0279939 -6.23212e-12)
(1.50221 0.0197239 -1.48672e-12)
(1.49179 0.014099 3.17763e-12)
(1.48406 0.0101525 5.64681e-12)
(1.47807 0.00747005 3.76213e-12)
(1.47341 0.00566308 4.95199e-12)
(1.46965 0.0043935 3.68111e-12)
(1.46661 0.00347289 -5.01453e-12)
(1.4641 0.0027649 -2.13891e-12)
(1.46214 0.00231001 -3.99891e-12)
(1.46035 0.00190351 -4.12912e-12)
(1.45912 0.00153727 -7.49066e-12)
(1.45789 0.000789518 -1.83653e-12)
(0.95018 0.0229615 9.19362e-14)
(1.04069 -0.0562983 7.74215e-13)
(1.06502 -0.0968897 9.59931e-14)
(1.12715 -0.119489 -7.18986e-13)
(1.25931 -0.131921 -3.36233e-12)
(1.50371 -0.105371 -7.99093e-12)
(1.86345 -0.0412451 -3.74473e-12)
(2.28314 0.0559608 8.03388e-12)
(2.72101 0.160944 7.87775e-12)
(3.14551 0.251656 6.15174e-12)
(3.54182 0.322961 5.25953e-12)
(3.90919 0.374541 1.79266e-12)
(4.24021 0.409605 6.27922e-12)
(4.53901 0.43044 2.01692e-12)
(4.80552 0.441604 1.07343e-11)
(5.04098 0.453278 2.22201e-12)
(5.25068 0.465308 8.95293e-12)
(5.43694 0.476811 6.56637e-12)
(5.59615 0.489535 6.36998e-12)
(5.72441 0.512711 2.02615e-12)
(5.81719 0.552165 7.82976e-12)
(5.86086 0.613156 1.296e-11)
(5.8376 0.70857 3.21136e-12)
(5.72429 0.86493 7.6402e-12)
(5.49769 1.06981 7.43899e-12)
(5.16902 1.26238 6.6542e-12)
(4.67851 1.32961 7.92208e-12)
(4.03546 1.22726 4.55231e-12)
(3.32525 1.004 2.82647e-12)
(2.64205 0.736191 2.10361e-12)
(2.12569 0.488928 2.39738e-12)
(1.87132 0.306098 1.01342e-12)
(1.73168 0.191736 4.59073e-12)
(1.63777 0.124788 6.88947e-12)
(1.59124 0.0854331 2.05506e-12)
(1.55697 0.0601724 -1.84292e-12)
(1.53459 0.0420868 3.60485e-12)
(1.517 0.0298914 -9.81233e-12)
(1.50444 0.0211271 -4.349e-12)
(1.49468 0.0151394 1.8914e-12)
(1.48738 0.0109235 4.49457e-12)
(1.48172 0.0080434 1.66823e-12)
(1.47729 0.00609542 4.36228e-12)
(1.47372 0.00472296 4.07157e-12)
(1.47084 0.00372615 -2.66045e-12)
(1.46847 0.00295499 -2.64846e-13)
(1.46663 0.00245903 -5.22581e-12)
(1.46497 0.00202113 -6.13993e-12)
(1.46384 0.00163974 -7.92303e-12)
(1.46269 0.000849209 1.22726e-13)
(0.930726 0.0204791 3.596e-14)
(0.991707 -0.00973772 1.43715e-13)
(1.02135 -0.0231196 -1.56693e-13)
(1.06691 -0.0276076 -1.16045e-12)
(1.13396 -0.0298169 -6.37697e-12)
(1.24846 -0.0252995 -5.66608e-12)
(1.4277 -0.0103781 7.05947e-13)
(1.67495 0.0160073 2.44077e-13)
(1.98164 0.0554026 1.25269e-12)
(2.32037 0.108107 1.88895e-12)
(2.6628 0.162601 2.07858e-12)
(2.99737 0.208392 -5.29398e-12)
(3.31281 0.244319 -7.18389e-12)
(3.60845 0.27196 -4.03436e-12)
(3.88167 0.293104 6.84729e-12)
(4.13061 0.312054 2.07642e-12)
(4.35818 0.331971 4.58438e-12)
(4.56359 0.3538 4.91111e-12)
(4.74365 0.378716 5.86741e-12)
(4.89381 0.413911 -1.62388e-12)
(5.00848 0.464958 2.66574e-12)
(5.07441 0.540267 7.0189e-12)
(5.07158 0.649655 4.75513e-12)
(4.98396 0.813764 1.26809e-11)
(4.8037 1.01226 8.80363e-12)
(4.52901 1.18899 7.12088e-12)
(4.114 1.25336 1.09363e-11)
(3.57447 1.1679 5.87837e-12)
(2.9862 0.968941 3.71375e-12)
(2.42053 0.71534 2.77731e-12)
(2.00802 0.484397 -7.98838e-13)
(1.81966 0.309104 -2.14896e-13)
(1.70341 0.191729 1.49151e-12)
(1.62317 0.129471 3.38323e-12)
(1.58395 0.088891 3.51496e-12)
(1.55387 0.0632087 -3.33463e-12)
(1.53402 0.0443831 3.14963e-12)
(1.51818 0.0316667 -1.26074e-11)
(1.50673 0.0224706 -4.89603e-12)
(1.49776 0.0161502 2.7257e-12)
(1.491 0.0116821 3.79161e-12)
(1.48572 0.00861073 -1.30525e-12)
(1.48157 0.00652303 4.64158e-12)
(1.47823 0.00504654 4.07882e-12)
(1.47555 0.00397185 -1.79852e-12)
(1.47334 0.0031355 -2.72217e-12)
(1.47165 0.00259707 -7.74813e-12)
(1.47013 0.00212764 -8.85803e-12)
(1.46911 0.00173497 -8.50579e-12)
(1.46805 0.000907345 3.40045e-12)
(0.920759 0.0171373 7.60982e-15)
(0.960403 0.0137096 -4.46091e-15)
(0.990776 0.0150444 -2.31405e-13)
(1.02862 0.0172171 -1.00366e-12)
(1.07584 0.0226342 -2.95203e-12)
(1.14161 0.0311266 -3.87823e-12)
(1.23411 0.0406655 -2.91773e-12)
(1.36381 0.0509298 -6.25411e-12)
(1.5386 0.0597894 -3.77575e-12)
(1.75557 0.0709626 -1.98745e-12)
(2.00474 0.0820837 -3.35259e-12)
(2.2703 0.0967209 -5.18585e-12)
(2.5377 0.114981 -6.0012e-12)
(2.80336 0.135847 -5.08338e-12)
(3.05989 0.156321 -2.69206e-12)
(3.30225 0.178539 -1.95125e-12)
(3.52924 0.202951 2.56132e-12)
(3.7383 0.23077 3.65782e-12)
(3.92578 0.264454 4.57253e-12)
(4.08597 0.308974 -1.13709e-12)
(4.21241 0.369774 1.7644e-12)
(4.29057 0.45563 3.92525e-12)
(4.30303 0.575331 5.68981e-12)
(4.24159 0.74013 8.53523e-12)
(4.10121 0.929444 9.01716e-12)
(3.87552 1.08715 7.35314e-12)
(3.53953 1.14962 8.32435e-12)
(3.10367 1.0796 5.95548e-12)
(2.63781 0.907012 4.20857e-12)
(2.19515 0.67474 3.31846e-12)
(1.89816 0.465994 1.12594e-12)
(1.76101 0.309489 -7.60707e-13)
(1.66944 0.190179 -2.90781e-13)
(1.60691 0.132202 5.7756e-13)
(1.57507 0.0912814 4.76064e-12)
(1.5499 0.0655284 -1.48088e-12)
(1.53287 0.0462789 -1.98234e-12)
(1.51907 0.0331952 -9.5481e-12)
(1.50891 0.0236734 -1.36505e-12)
(1.50088 0.017076 9.85889e-13)
(1.49474 0.0123903 2.85366e-12)
(1.48992 0.00914502 -4.79051e-14)
(1.48611 0.00692552 1.80671e-12)
(1.48305 0.0053479 3.54912e-12)
(1.48059 0.00419637 -6.90971e-12)
(1.47858 0.00329515 -5.77684e-12)
(1.47706 0.0027146 -7.36088e-12)
(1.4757 0.00221463 -7.53311e-12)
(1.47481 0.00181597 -8.30918e-12)
(1.47385 0.000960383 5.11007e-12)
(0.914144 0.0136118 9.34117e-15)
(0.942422 0.02227 1.2979e-14)
(0.968682 0.0304201 -1.11349e-13)
(0.999988 0.0371684 -8.45123e-13)
(1.03813 0.0443461 -2.8224e-12)
(1.08676 0.0523088 -3.99459e-12)
(1.15016 0.0617495 -3.29286e-12)
(1.23242 0.0714976 -3.72646e-12)
(1.33743 0.0759838 -3.41716e-12)
(1.46931 0.0749872 -2.79685e-12)
(1.63194 0.0664533 -1.1062e-11)
(1.81879 0.0593927 -7.69379e-12)
(2.02112 0.0568677 -6.13622e-12)
(2.23182 0.0600594 -4.71369e-12)
(2.44431 0.0682271 -1.03038e-11)
(2.6537 0.0822567 -5.01257e-12)
(2.8554 0.102609 6.40877e-12)
(3.04548 0.12992 3.94477e-12)
(3.21878 0.166745 3.49999e-12)
(3.36786 0.215799 -5.90667e-12)
(3.48602 0.282385 3.96133e-12)
(3.56002 0.374034 3.01809e-12)
(3.57698 0.496894 8.81461e-12)
(3.53327 0.656379 7.05665e-12)
(3.42155 0.829763 1.12709e-11)
(3.24171 0.96805 7.32323e-12)
(2.97821 1.02543 6.87863e-12)
(2.64648 0.969225 5.5366e-12)
(2.29746 0.820928 4.27758e-12)
(1.97875 0.611271 3.55303e-12)
(1.7913 0.433134 2.13256e-12)
(1.70146 0.295736 -2.54663e-12)
(1.63385 0.185287 -1.58241e-12)
(1.58938 0.131902 -1.14221e-12)
(1.5647 0.0921999 1.46925e-12)
(1.54491 0.0668086 -3.06726e-12)
(1.53095 0.0475591 -2.46343e-12)
(1.51944 0.0343198 -4.07935e-12)
(1.51076 0.0246258 6.7521e-13)
(1.50381 0.0178393 6.19288e-13)
(1.49841 0.012994 2.28479e-12)
(1.49413 0.00960781 -2.34145e-13)
(1.49072 0.00727469 1.10167e-14)
(1.48798 0.00560525 2.60384e-12)
(1.48578 0.00438251 -1.09794e-11)
(1.484 0.00342108 -8.41079e-12)
(1.48265 0.00280084 -7.68807e-12)
(1.48147 0.00227294 -6.85298e-12)
(1.48072 0.00187436 -7.3013e-12)
(1.47989 0.00100377 2.39721e-12)
(0.90932 0.0110435 3.28305e-14)
(0.9304 0.024385 1.42001e-13)
(0.95239 0.0355648 4.14526e-13)
(0.978211 0.0450091 -3.97143e-13)
(1.0093 0.0536831 -1.49221e-12)
(1.04864 0.0618242 -2.1618e-12)
(1.09858 0.068823 -2.3272e-12)
(1.16021 0.07511 -2.49128e-12)
(1.23679 0.0760775 -2.51449e-12)
(1.33205 0.0708215 -2.5688e-12)
(1.44582 0.05919 -4.45031e-12)
(1.57851 0.0471392 -4.65246e-12)
(1.72431 0.0357587 -4.31601e-12)
(1.88043 0.0283136 -3.65298e-12)
(2.04152 0.02734 2.06567e-12)
(2.20355 0.0329625 -4.25757e-13)
(2.36223 0.0468014 1.41452e-12)
(2.51327 0.0691908 1.53528e-12)
(2.65152 0.103575 1.49332e-12)
(2.76971 0.151748 -4.37148e-12)
(2.86195 0.21863 -3.83353e-14)
(2.9165 0.310147 1.03269e-12)
(2.92578 0.428623 3.42308e-12)
(2.88804 0.575991 4.14525e-12)
(2.79639 0.724428 6.0926e-12)
(2.65721 0.84225 5.56152e-12)
(2.46159 0.887824 5.83861e-12)
(2.2255 0.844206 4.88383e-12)
(1.98457 0.716753 3.91611e-12)
(1.78968 0.538195 3.39196e-12)
(1.69385 0.37886 1.51931e-12)
(1.64338 0.267293 -1.11009e-12)
(1.59805 0.177563 -1.80984e-12)
(1.57103 0.128369 -1.90208e-12)
(1.55309 0.0913468 -4.39572e-13)
(1.53882 0.0667323 -1.93767e-12)
(1.52809 0.0479883 -2.69816e-12)
(1.51908 0.0348626 1.29483e-12)
(1.51204 0.0252005 1.79604e-13)
(1.50632 0.0183487 3.52682e-13)
(1.50176 0.0134274 -3.59074e-12)
(1.49811 0.0099515 -2.09331e-12)
(1.49516 0.00753466 -1.42587e-12)
(1.49279 0.00579017 9.31929e-13)
(1.49088 0.00450788 -1.21048e-11)
(1.48934 0.00349597 -9.38963e-12)
(1.4882 0.00284191 -7.72968e-12)
(1.4872 0.00229055 -6.3241e-12)
(1.48659 0.00189941 -5.70347e-12)
(1.48591 0.00103124 -5.0064e-12)
(0.906439 0.00909715 2.2677e-14)
(0.922069 0.0229576 1.12511e-13)
(0.939759 0.0346765 5.30922e-13)
(0.960895 0.0445422 -3.63135e-13)
(0.986498 0.053369 -1.7856e-12)
(1.018 0.060856 -1.71186e-12)
(1.0584 0.0660613 -1.75417e-12)
(1.10903 0.0677273 -1.81414e-12)
(1.16956 0.0662474 -1.89121e-12)
(1.24405 0.0588303 -2.09863e-12)
(1.33214 0.0471086 -3.00866e-12)
(1.43209 0.0331298 -3.07564e-12)
(1.53954 0.0212669 -2.77508e-12)
(1.65396 0.0126901 -2.2632e-12)
(1.77098 0.00949511 -7.46567e-13)
(1.8884 0.012495 -3.49437e-13)
(2.00174 0.0231356 8.81072e-14)
(2.10859 0.0429412 -4.49292e-13)
(2.20485 0.0744316 2.057e-14)
(2.28368 0.120237 2.17262e-12)
(2.34171 0.183112 1.07263e-12)
(2.36996 0.267889 -1.06095e-13)
(2.36636 0.373993 4.12689e-13)
(2.3282 0.499754 1.44234e-12)
(2.25322 0.619708 3.29908e-12)
(2.15155 0.712526 3.57082e-12)
(2.02061 0.743746 5.7771e-12)
(1.87388 0.703602 4.01644e-12)
(1.73502 0.600252 3.03824e-12)
(1.65307 0.452633 2.79532e-12)
(1.61707 0.334766 -1.66901e-12)
(1.58945 0.2346 -1.99356e-12)
(1.56567 0.165902 -2.34668e-12)
(1.55134 0.12147 -2.12398e-12)
(1.5406 0.0882165 -1.14991e-12)
(1.53159 0.064993 -2.17934e-12)
(1.52423 0.0472899 -2.88572e-12)
(1.51781 0.0346158 -1.50465e-12)
(1.51255 0.0252343 -1.27933e-12)
(1.50816 0.018483 -8.44919e-13)
(1.50456 0.0136017 -1.62269e-12)
(1.5016 0.0101121 -3.06473e-12)
(1.49918 0.00765928 -2.19477e-12)
(1.49721 0.00586968 -1.83198e-12)
(1.49563 0.00454834 -1.131e-11)
(1.49436 0.00350384 -8.10018e-12)
(1.49341 0.00282585 -6.79076e-12)
(1.49262 0.00225869 -5.51087e-12)
(1.49215 0.00188163 -4.59575e-12)
(1.49163 0.00103678 -3.27118e-12)
(0.904484 0.00751299 -4.62244e-14)
(0.915929 0.0201566 -3.64723e-13)
(0.929657 0.0309298 -1.82729e-13)
(0.946416 0.0399474 -4.03159e-13)
(0.966819 0.0476492 -8.38353e-13)
(0.992078 0.0537106 -1.117e-12)
(1.02384 0.0576849 -1.30103e-12)
(1.06439 0.0576492 -1.39737e-12)
(1.11477 0.053342 -1.48541e-12)
(1.17387 0.0445312 -1.76145e-12)
(1.24118 0.0327265 -3.76621e-12)
(1.31656 0.021596 -2.18641e-12)
(1.3969 0.0116735 -1.33447e-12)
(1.47944 0.0060133 -8.30352e-13)
(1.56241 0.00485658 -2.57679e-13)
(1.64267 0.00954086 1.53078e-13)
(1.71813 0.0209336 -3.75955e-13)
(1.78674 0.0405642 -3.38926e-12)