/*--------------------------------*- C++ -*----------------------------------*\
| =========                 |                                                 |
| \\      /  F ield         | OpenFOAM: The Open Source CFD Toolbox           |
|  \\    /   O peration     | Version:  2.4.x                                 |
|   \\  /    A nd           | Web:      www.OpenFOAM.org                      |
|    \\/     M anipulation  |                                                 |
\*---------------------------------------------------------------------------*/
FoamFile
{
    version     2.0;
    format      ascii;
    class       volScalarField;
    location    "0.04";
    object      varZ;
}
// * * * * * * * * * * * * * * * * * * * * * * * * * * * * * * * * * * * * * //

dimensions      [0 0 0 0 0 0 0];

internalField   nonuniform List<scalar> 
1250
(
0.00111927
0.00460658
0.0099027
0.0160668
0.0226059
0.0289695
0.0347394
0.0395688
0.0433561
0.046175
0.0480737
0.0492109
0.0495977
0.0494992
0.049051
0.0481089
0.0469117
0.0455577
0.0441131
0.0425652
0.0411161
0.0396731
0.0378631
0.0369656
0.0377249
0.0416017
0.0555633
0.076353
0.071839
0.0497116
0.0230422
0.00722067
0.00168007
0.000363032
7.80236e-05
1.64268e-05
3.333e-06
6.50718e-07
1.22529e-07
2.22925e-08
3.92089e-09
6.66187e-10
1.09168e-10
1.72201e-11
2.60919e-12
3.7896e-13
5.26495e-14
6.9827e-15
8.82698e-16
1.04278e-16
0.00125935
0.00517204
0.0110378
0.017736
0.0246926
0.0312501
0.0370298
0.0417135
0.0452962
0.0478973
0.0495707
0.0504933
0.0506975
0.0504797
0.0498501
0.0488016
0.0475264
0.0461106
0.0446188
0.0430373
0.041566
0.0401002
0.0382809
0.037416
0.038202
0.0421612
0.0563863
0.0764639
0.0716504
0.0493419
0.0228587
0.00715977
0.00166645
0.000360326
7.74886e-05
1.63233e-05
3.31388e-06
6.47374e-07
1.21974e-07
2.22049e-08
3.90776e-09
6.64321e-10
1.08919e-10
1.71894e-11
2.60577e-12
3.78634e-13
5.26274e-14
6.98275e-15
8.83075e-16
1.04365e-16
0.0016748
0.00682159
0.0143007
0.0223991
0.0302674
0.0370679
0.0426535
0.0468458
0.0498572
0.0518746
0.0529678
0.0533772
0.053201
0.0526185
0.0516136
0.0503388
0.0488844
0.0473308
0.0457346
0.0440795
0.0425599
0.0410427
0.0392095
0.0384236
0.0392274
0.0434077
0.0582672
0.0766767
0.0712103
0.0484358
0.022406
0.00700478
0.00163162
0.000353468
7.61447e-05
1.60629e-05
3.26546e-06
6.38796e-07
1.20524e-07
2.19707e-08
3.87156e-09
6.58972e-10
1.08166e-10
1.7089e-11
2.5932e-12
3.77175e-13
5.24735e-14
6.9686e-15
8.82059e-16
1.0433e-16
0.00284929
0.0111506
0.0223288
0.0327995
0.0414698
0.0478651
0.0525036
0.0554769
0.0572651
0.0581764
0.0582285
0.0578735
0.0570007
0.0557753
0.0542985
0.0526626
0.0509334
0.049173
0.0474216
0.0456591
0.0440676
0.0424729
0.0406378
0.0399746
0.0407084
0.0453537
0.0611085
0.0768619
0.0704886
0.0469786
0.0216871
0.00675458
0.00157502
0.000342347
7.39727e-05
1.56417e-05
3.1868e-06
6.24766e-07
1.18131e-07
2.15796e-08
3.8102e-09
6.49734e-10
1.06835e-10
1.69063e-11
2.56941e-12
3.74258e-13
5.21396e-14
6.93345e-15
8.78742e-16
1.0406e-16
0.00775102
0.0243853
0.0422286
0.0537482
0.0609562
0.0649778
0.0670857
0.0676698
0.0674087
0.0666304
0.0652873
0.0636903
0.0618571
0.059865
0.0577807
0.0556824
0.0536032
0.0515823
0.0496369
0.0477426
0.04606
0.044369
0.0425659
0.0420787
0.0429122
0.0479461
0.0644902
0.0768299
0.0693112
0.0450847
0.0207316
0.00641963
0.00149909
0.000327436
7.10626e-05
1.50774e-05
3.08125e-06
6.05892e-07
1.149e-07
2.1049e-08
3.7265e-09
6.37056e-10
1.04995e-10
1.66515e-11
2.53587e-12
3.70088e-13
5.16532e-14
6.88087e-15
8.73565e-16
1.03607e-16
0.0492462
0.0687872
0.0811389
0.0861335
0.0876914
0.0869248
0.0849515
0.0822666
0.0793313
0.0763836
0.073365
0.0703745
0.0674357
0.064577
0.0618189
0.0592121
0.0567486
0.0544433
0.0522872
0.0502529
0.0484696
0.0466807
0.0449719
0.0447035
0.0457376
0.0512062
0.0680018
0.0764027
0.0674949
0.0428992
0.0195761
0.00601447
0.00140733
0.000309414
6.75421e-05
1.43944e-05
2.95339e-06
5.82995e-07
1.10974e-07
2.04029e-08
3.62437e-09
6.21559e-10
1.02743e-10
1.63391e-11
2.49471e-12
3.64965e-13
5.10553e-14
6.81623e-15
8.67206e-16
1.03052e-16
0.0702991
0.110649
0.119243
0.118052
0.114214
0.108387
0.102409
0.096596
0.0911178
0.0861049
0.0814415
0.0771193
0.0731251
0.0694362
0.0660413
0.0629575
0.0601331
0.0575614
0.0552096
0.0530501
0.0511728
0.0493122
0.0477878
0.0477495
0.0490701
0.0551365
0.0710014
0.0754063
0.0650616
0.0404384
0.0182592
0.00555726
0.00130421
0.000289123
6.35683e-05
1.36223e-05
2.80873e-06
5.57068e-07
1.06524e-07
1.96705e-08
3.5086e-09
6.04008e-10
1.00198e-10
1.59873e-11
2.44859e-12
3.59267e-13
5.03978e-14
6.74638e-15
8.60531e-16
1.02498e-16
0.0306631
0.114846
0.135553
0.135812
0.131104
0.123345
0.115275
0.107611
0.100509
0.094089
0.0882449
0.0829502
0.0781667
0.0738511
0.0699837
0.0665332
0.0634346
0.0606626
0.0581665
0.0559228
0.0539813
0.0521103
0.0508676
0.0510218
0.052714
0.0593662
0.0730024
0.0738432
0.0620237
0.0377667
0.0168273
0.00506878
0.00119469
0.000267501
5.93154e-05
1.2794e-05
2.6534e-06
5.29217e-07
1.01745e-07
1.88844e-08
3.38461e-09
5.85278e-10
9.74963e-11
1.56168e-11
2.40058e-12
3.53433e-13
4.97412e-14
6.67933e-15
8.54559e-16
1.02068e-16
0.0171244
0.0859986
0.122464
0.13273
0.132065
0.127424
0.120225
0.112815
0.105581
0.0988163
0.0925678
0.0868989
0.0817779
0.0771883
0.0731181
0.0694948
0.066273
0.063409
0.0608558
0.0585949
0.0566436
0.0548538
0.0539517
0.0542917
0.0563488
0.0634044
0.073568
0.071739
0.0584036
0.0349678
0.0153322
0.00457088
0.00108366
0.000245488
5.49612e-05
1.19438e-05
2.49382e-06
5.00611e-07
9.68427e-08
1.808e-08
3.25827e-09
5.66318e-10
9.4788e-11
1.52506e-11
2.35407e-12
3.47949e-13
4.91528e-14
6.62406e-15
8.50443e-16
1.01901e-16
0.0121165
0.0471124
0.0848637
0.107748
0.117289
0.118594
0.11584
0.110846
0.105038
0.0991233
0.0934408
0.0881453
0.0832684
0.0788476
0.0749047
0.0713654
0.068212
0.0654065
0.0629206
0.0607306
0.0588486
0.0572483
0.0567055
0.0572213
0.0595675
0.066424
0.0729329
0.0691341
0.0543071
0.0320785
0.0138296
0.0040841
0.000975819
0.000223966
5.06774e-05
1.11054e-05
2.33642e-06
4.72429e-07
9.20261e-08
1.72935e-08
3.13566e-09
5.48125e-10
9.22311e-11
1.4913e-11
2.31269e-12
3.43341e-13
4.87058e-14
6.59039e-15
8.49439e-16
1.02148e-16
0.00306783
0.0179131
0.0418581
0.0684188
0.0875165
0.0975496
0.101266
0.100838
0.0984736
0.0946496
0.0904351
0.0861888
0.0820901
0.0782658
0.0747844
0.0716214
0.0687766
0.0662288
0.0639628
0.0619679
0.0602671
0.0589783
0.0587864
0.0594851
0.0620055
0.0679468
0.0711078
0.0658033
0.0498054
0.0291027
0.0123274
0.00361099
0.000871541
0.000202998
4.64735e-05
1.02803e-05
2.1815e-06
4.44735e-07
8.73092e-08
1.65279e-08
3.01749e-09
5.3085e-10
8.98577e-11
1.46102e-11
2.27762e-12
3.39815e-13
4.84343e-14
6.58364e-15
8.52339e-16
1.02918e-16
0.00138079
0.00699632
0.0171762
0.0322461
0.0503294
0.066005
0.0763185
0.0818031
0.0838348
0.0835542
0.0821134
0.0798089
0.0772261
0.0745965
0.0720502
0.0696176
0.0673581
0.0652883
0.0634157
0.0617743
0.0604111
0.0595924
0.0597204
0.0606961
0.063289
0.0676165
0.0680382
0.0613312
0.0449315
0.0259056
0.0107559
0.00312869
0.00076517
0.00018131
4.20698e-05
9.40837e-06
2.01667e-06
4.15082e-07
8.22307e-08
1.56998e-08
2.88917e-09
5.12047e-10
8.72729e-11
1.42813e-11
2.23983e-12
3.36092e-13
4.81658e-14
6.58164e-15
8.56444e-16
1.03903e-16
0.000779536
0.00338368
0.00761201
0.0137732
0.0226027
0.0338044
0.0453735
0.054968
0.0615449
0.0654213
0.0672523
0.0676767
0.0673289
0.0664618
0.0653273
0.0640613
0.0627862
0.0615492
0.0603894
0.0593923
0.0586278
0.0584112
0.0588929
0.0602489
0.062703
0.0651599
0.0636187
0.0554622
0.0395204
0.0223862
0.00907181
0.00262336
0.000652775
0.000157819
3.71907e-05
8.42437e-06
1.82721e-06
3.80328e-07
7.61482e-08
1.46835e-08
2.72724e-09
4.87506e-10
8.37528e-11
1.38069e-11
2.18045e-12
3.29325e-13
4.74898e-14
6.52798e-15
8.54369e-16
1.04201e-16
0.000484612
0.00190632
0.00393489
0.00663465
0.0102526
0.0151287
0.0214303
0.0288271
0.0361666
0.0424362
0.0470506
0.0501941
0.0521893
0.0533709
0.0539982
0.0542311
0.0542391
0.0541512
0.0540064
0.0539667
0.0541067
0.0546635
0.0558125
0.0575927
0.0595856
0.0602625
0.0574629
0.0483113
0.0336116
0.0185637
0.00730403
0.00210518
0.00053569
0.000132484
3.17733e-05
7.30403e-06
1.60603e-06
3.38649e-07
6.86364e-08
1.33866e-08
2.51275e-09
4.53568e-10
7.86267e-11
1.30702e-11
2.08014e-12
3.16465e-13
4.59492e-14
6.35763e-15
8.3732e-16
1.02709e-16
0.000314041
0.00116458
0.00227041
0.00364589
0.00534587
0.00747714
0.0101924
0.0136631
0.0178541
0.0224801
0.0270318
0.0310606
0.0344134
0.0371215
0.0392838
0.0409951
0.042392
0.0435834
0.0446643
0.0457567
0.0469761
0.0484635
0.0502476
0.0522165
0.0536428
0.0532889
0.0495548
0.0401772
0.0272565
0.0145457
0.00553039
0.00159687
0.000417707
0.00010598
2.59205e-05
6.05871e-06
1.3533e-06
2.89624e-07
5.95232e-08
1.17604e-08
2.23404e-09
4.07707e-10
7.13916e-11
1.19777e-11
1.92262e-12
2.94834e-13
4.31283e-14
6.00944e-15
7.96797e-16
9.83337e-17
0.000206355
0.000734749
0.0013867
0.00216399
0.00308009
0.00416628
0.00547477
0.00708132
0.00905789
0.0114301
0.0141453
0.0170678
0.0199912
0.0227885
0.0254085
0.0278293
0.030077
0.0321939
0.0342353
0.0362702
0.0383662
0.0405542
0.04274
0.0446457
0.0455071
0.0445519
0.0402618
0.0315058
0.0207145
0.0105581
0.0038705
0.0011296
0.000305427
7.97048e-05
1.99184e-05
4.74374e-06
1.07849e-06
2.34738e-07
4.90103e-08
9.82576e-09
1.89167e-09
3.49468e-10
6.1879e-11
1.04878e-11
1.69926e-12
2.62829e-13
3.87541e-14
5.4404e-15
7.26469e-16
9.02247e-17
0.000133929
0.000464845
0.000861246
0.00132249
0.00185141
0.00245859
0.00316489
0.00400195
0.00501035
0.00624365
0.0077354
0.00948082
0.0114226
0.0135065
0.0156881
0.0179283
0.0202064
0.022514
0.0248547
0.0272341
0.029644
0.0320172
0.0341665
0.0357255
0.0360567
0.0347042
0.0303074
0.0228933
0.0144122
0.00692345
0.00246013
0.000734929
0.000206441
5.54925e-05
1.41934e-05
3.45162e-06
8.0044e-07
1.77531e-07
3.77291e-08
7.68855e-09
1.50236e-09
2.81305e-10
5.04214e-11
8.64113e-12
1.41422e-12
2.20758e-13
3.28256e-14
4.64429e-15
6.24738e-16
7.80977e-17
8.43624e-05
0.000288422
0.000528674
0.000804145
0.0011151
0.00146516
0.00186366
0.0023289
0.0028888
0.00358594
0.00445842
0.00551751
0.00676061
0.00817971
0.0097623
0.0114928
0.0133561
0.0153367
0.0174166
0.019564
0.0217188
0.023758
0.0254566
0.0264488
0.0263403
0.0247223
0.0207208
0.0150013
0.00889341
0.00399803
0.00140063
0.000434145
0.000126865
3.5141e-05
9.21401e-06
2.29297e-06
5.43578e-07
1.23094e-07
2.66726e-08
5.53395e-09
1.09909e-09
2.0883e-10
3.79274e-11
6.57766e-12
1.08811e-12
1.71493e-13
2.57237e-14
3.66887e-15
4.97241e-16
6.25679e-17
5.09506e-05
0.000172688
0.000314562
0.000475748
0.000655939
0.000856645
0.0010829
0.00134588
0.00166718
0.00207912
0.00261054
0.00327548
0.00408173
0.00503151
0.00612383
0.00735463
0.00871562
0.0101927
0.0117615
0.0133772
0.0149613
0.0163807
0.0174296
0.0178217
0.0173888
0.0156981
0.0125218
0.0085445
0.00468495
0.001992
0.000707462
0.000229124
6.95303e-05
1.98382e-05
5.34039e-06
1.36274e-06
3.30897e-07
7.66454e-08
1.69598e-08
3.58673e-09
7.24815e-10
1.39878e-10
2.57598e-11
4.52332e-12
7.56602e-13
1.20425e-13
1.82239e-14
2.62017e-15
3.57752e-16
4.53009e-17
2.92714e-05
9.8763e-05
0.000179355
0.000270523
0.000371999
0.000484599
0.000611473
0.000759911
0.000943837
0.00118564
0.00150725
0.00192122
0.00243391
0.00304849
0.00376483
0.00457974
0.00548496
0.00646509
0.00749294
0.00852309
0.00948251
0.0102606
0.0107063
0.0106754
0.010061
0.0085761
0.00641985
0.00404139
0.00205055
0.0008545
0.000314104
0.000105969
3.32456e-05
9.76284e-06
2.70097e-06
7.07677e-07
1.7623e-07
4.18003e-08
9.45433e-09
2.03956e-09
4.19529e-10
8.22468e-11
1.53606e-11
2.73105e-12
4.61833e-13
7.42153e-14
1.13266e-14
1.64094e-15
2.25614e-16
2.87286e-17
1.5896e-05
5.36303e-05
9.74751e-05
0.000147176
0.000202585
0.000264163
0.000333743
0.0004156
0.000517564
0.000651933
0.0008334
0.00107291
0.00137584
0.00174346
0.00217381
0.00266152
0.00319682
0.00376368
0.0043367
0.00487777
0.00533219
0.00562815
0.00568392
0.00547071
0.00485037
0.00384345
0.0026502
0.00153677
0.000747937
0.000316168
0.000120155
4.18346e-05
1.35022e-05
4.07585e-06
1.15874e-06
3.11728e-07
7.96039e-08
1.93299e-08
4.46696e-09
9.82403e-10
2.05557e-10
4.09092e-11
7.74135e-12
1.3921e-12
2.37719e-13
3.85238e-14
5.92265e-15
8.6362e-16
1.1944e-16
1.52685e-17
8.02074e-06
2.73245e-05
5.00826e-05
7.61605e-05
0.000105426
0.000138023
0.000174738
0.000217539
0.000270009
0.000337612
0.000427545
0.000547081
0.00070102
0.000890127
0.00111212
0.00136109
0.00162738
0.00189746
0.00215245
0.00236742
0.00251121
0.0025499
0.00247604
0.00223705
0.00183319
0.00134031
0.000857002
0.000474251
0.000228973
9.82187e-05
3.81088e-05
1.35675e-05
4.48452e-06
1.3878e-06
4.04476e-07
1.11456e-07
2.91112e-08
7.21745e-09
1.69937e-09
3.79941e-10
8.06454e-11
1.62495e-11
3.10734e-12
5.63654e-13
9.69384e-14
1.58025e-14
2.44161e-15
3.57522e-16
4.96164e-17
6.34358e-18
3.49335e-06
1.24405e-05
2.34523e-05
3.63588e-05
5.09519e-05
6.71509e-05
8.51007e-05
0.00010539
0.000129294
0.000158738
0.000196264
0.000244754
0.000306655
0.000382909
0.000471919
0.0005698
0.000670514
0.00076589
0.000845881
0.000899252
0.000915333
0.000893755
0.000817224
0.000685116
0.00052298
0.000358263
0.000217768
0.00011699
5.58455e-05
2.39686e-05
9.37624e-06
3.38406e-06
1.13767e-06
3.58575e-07
1.06434e-07
2.98416e-08
7.91923e-09
1.99128e-09
4.7458e-10
1.07189e-10
2.29414e-11
4.65295e-12
8.94111e-13
1.62732e-13
2.8045e-14
4.57602e-15
7.07044e-16
1.03467e-16
1.43435e-17
1.82095e-18
9.34245e-07
4.09116e-06
8.63412e-06
1.40806e-05
2.02173e-05
2.68944e-05
3.40931e-05
4.18759e-05
5.05059e-05
6.04702e-05
7.24758e-05
8.73154e-05
0.000105666
0.000127805
0.000152962
0.000179505
0.00020486
0.000226057
0.00024
0.000243964
0.000238702
0.000220724
0.000188103
0.00014671
0.0001044
6.72113e-05
3.88028e-05
2.00364e-05
9.31077e-06
3.93557e-06
1.53077e-06
5.5286e-07
1.8664e-07
5.91484e-08
1.76482e-08
4.96838e-09
1.32212e-09
3.32926e-10
7.9355e-11
1.78955e-11
3.81831e-12
7.71149e-13
1.47434e-13
2.66758e-14
4.56541e-15
7.3914e-16
1.13259e-16
1.64332e-17
2.25886e-18
2.80868e-19
3.1456e-08
5.73048e-07
1.34041e-06
2.23263e-06
3.25419e-06
4.36271e-06
5.54503e-06
6.78416e-06
8.0685e-06
9.44637e-06
1.10162e-05
1.28801e-05
1.51221e-05
1.77412e-05
2.05591e-05
2.33382e-05
2.57142e-05
2.73388e-05
2.79338e-05
2.72931e-05
2.5329e-05
2.20353e-05
1.77213e-05
1.30894e-05
8.8581e-06
5.48542e-06
3.08631e-06
1.57789e-06
7.37819e-07
3.18246e-07
1.27656e-07
4.79191e-08
1.70644e-08
5.72839e-09
1.65251e-09
3.99593e-10
9.46911e-11
2.4814e-11
6.47034e-12
1.38769e-12
2.44539e-13
4.3297e-14
8.99838e-15
1.86673e-15
2.82624e-16
4.04383e-17
5.71783e-18
7.88294e-19
1.09385e-19
1.29872e-20
)
;

boundaryField
{
    AXIS
    {
        type            empty;
    }
    OUTLET
    {
        type            zeroGradient;
    }
    COFLOW
    {
        type            fixedValue;
        value           uniform 0;
    }
    PILOT
    {
        type            fixedValue;
        value           uniform 0;
    }
    FUEL
    {
        type            fixedValue;
        value           uniform 0;
    }
    WALL
    {
        type            zeroGradient;
    }
    front
    {
        type            wedge;
    }
    back
    {
        type            wedge;
    }
}


// ************************************************************************* //
