/*--------------------------------*- C++ -*----------------------------------*\
| =========                 |                                                 |
| \\      /  F ield         | OpenFOAM: The Open Source CFD Toolbox           |
|  \\    /   O peration     | Version:  2.4.x                                 |
|   \\  /    A nd           | Web:      www.OpenFOAM.org                      |
|    \\/     M anipulation  |                                                 |
\*---------------------------------------------------------------------------*/
FoamFile
{
    version     2.0;
    format      ascii;
    class       volScalarField;
    location    "0.04";
    object      Z;
}
// * * * * * * * * * * * * * * * * * * * * * * * * * * * * * * * * * * * * * //

dimensions      [0 0 0 0 0 0 0];

internalField   nonuniform List<scalar> 
1250
(
0.997379
0.989512
0.978919
0.966894
0.953683
0.939717
0.925386
0.911184
0.89735
0.883932
0.870896
0.858168
0.845837
0.833881
0.822325
0.811133
0.800181
0.789368
0.778708
0.76821
0.757652
0.747307
0.736628
0.726483
0.715155
0.690665
0.624432
0.468295
0.299634
0.168204
0.0790131
0.0269115
0.00694275
0.00165092
0.000390728
9.09148e-05
2.04272e-05
4.40678e-06
9.1415e-07
1.81751e-07
3.45902e-08
6.28934e-09
1.09034e-09
1.79936e-10
2.82304e-11
4.20673e-12
5.94915e-13
7.97826e-14
1.01424e-14
1.19961e-15
0.996974
0.988104
0.976572
0.96363
0.949551
0.934959
0.920224
0.905867
0.891994
0.878602
0.865641
0.853045
0.84087
0.829085
0.817698
0.806652
0.79584
0.785159
0.774626
0.764244
0.7538
0.743566
0.733015
0.722987
0.711621
0.686889
0.620004
0.464327
0.297399
0.167079
0.0784766
0.0267161
0.00689406
0.00164042
0.000388492
9.04477e-05
2.03338e-05
4.38903e-06
9.1098e-07
1.81215e-07
3.45049e-08
6.27668e-09
1.08861e-09
1.79726e-10
2.82088e-11
4.20517e-12
5.94927e-13
7.98154e-14
1.01505e-14
1.20103e-15
0.995716
0.984014
0.969872
0.954477
0.93836
0.922563
0.90722
0.892765
0.878996
0.865891
0.853298
0.841138
0.829421
0.818097
0.807146
0.796507
0.786047
0.775694
0.765468
0.755363
0.745186
0.735212
0.724942
0.71517
0.703705
0.678348
0.609799
0.455198
0.292109
0.164335
0.0771276
0.0262106
0.00676757
0.00161336
0.000382779
8.92493e-05
2.00914e-05
4.34227e-06
9.02379e-07
1.79709e-07
3.42545e-08
6.23726e-09
1.08277e-09
1.78917e-10
2.81055e-11
4.19322e-12
5.93715e-13
7.97165e-14
1.0146e-14
1.20141e-15
0.991827
0.973494
0.953448
0.933666
0.915041
0.898443
0.883176
0.869367
0.856545
0.844477
0.832893
0.821736
0.810978
0.800553
0.790443
0.780548
0.770723
0.760945
0.751241
0.741597
0.731862
0.722316
0.712476
0.703079
0.691441
0.665053
0.593809
0.441411
0.283931
0.159996
0.0749553
0.0253855
0.0065599
0.00156908
0.000373454
8.72894e-05
1.96926e-05
4.26466e-06
8.87921e-07
1.77139e-07
3.38187e-08
6.16696e-09
1.07203e-09
1.77371e-10
2.78971e-11
4.16713e-12
5.90715e-13
7.94058e-14
1.01182e-14
1.1994e-15
0.973982
0.940172
0.911331
0.888987
0.870988
0.856489
0.843897
0.832731
0.822504
0.81273
0.803174
0.793882
0.784809
0.775905
0.767151
0.75841
0.74957
0.740664
0.731738
0.722769
0.713681
0.704753
0.695487
0.686559
0.674644
0.646846
0.571943
0.423781
0.273191
0.154215
0.0720293
0.0242709
0.00627897
0.00150929
0.000360877
8.46452e-05
1.91535e-05
4.15943e-06
8.68234e-07
1.7362e-07
3.32183e-08
6.06941e-09
1.057e-09
1.75184e-10
2.75985e-11
4.1291e-12
5.86232e-13
7.8924e-14
1.00721e-14
1.19562e-15
0.798729
0.825843
0.817363
0.807789
0.799371
0.792821
0.786979
0.781261
0.77562
0.769712
0.763526
0.757148
0.750608
0.743898
0.737043
0.729883
0.722406
0.714691
0.706815
0.698755
0.690536
0.682422
0.673854
0.665461
0.653163
0.623627
0.544841
0.402914
0.260324
0.147203
0.0684497
0.022911
0.00593674
0.00143656
0.00034557
8.14257e-05
1.84967e-05
4.03106e-06
8.44182e-07
1.69314e-07
3.24825e-08
5.94971e-09
1.03854e-09
1.72498e-10
2.72316e-11
4.08235e-12
5.80723e-13
7.83327e-14
1.00158e-14
1.19103e-15
0.502848
0.641588
0.677124
0.693783
0.703124
0.709287
0.713389
0.715648
0.716407
0.715858
0.714282
0.71176
0.708521
0.704647
0.700232
0.695039
0.689277
0.683055
0.67649
0.669567
0.662442
0.65531
0.64754
0.639723
0.626961
0.59548
0.513548
0.379523
0.245842
0.139213
0.0643398
0.0213635
0.0055495
0.00135416
0.000328188
7.77654e-05
1.77496e-05
3.88503e-06
8.16823e-07
1.64419e-07
3.16471e-08
5.81416e-09
1.01772e-09
1.69485e-10
2.68233e-11
4.03092e-12
5.74767e-13
7.77105e-14
9.9593e-15
1.18686e-15
0.320092
0.452189
0.516679
0.560199
0.590268
0.611243
0.627115
0.638697
0.647109
0.652741
0.656469
0.658555
0.659149
0.658665
0.657146
0.654236
0.650502
0.646017
0.640988
0.635408
0.62957
0.623539
0.616655
0.609438
0.596187
0.562698
0.479292
0.354455
0.230274
0.13052
0.0598419
0.0196957
0.00513561
0.0012658
0.000309469
7.38161e-05
1.69434e-05
3.72752e-06
7.87355e-07
1.5916e-07
3.07534e-08
5.67005e-09
9.95776e-10
1.66349e-10
2.64054e-11
3.97956e-12
5.69039e-13
7.71493e-14
9.91455e-15
1.18455e-15
0.239645
0.280466
0.353374
0.418767
0.46827
0.504627
0.532519
0.553802
0.57025
0.58257
0.59207
0.599038
0.603854
0.60691
0.608295
0.607989
0.606602
0.604014
0.600707
0.596642
0.592242
0.587393
0.581514
0.574903
0.561222
0.525929
0.443524
0.328604
0.214131
0.121404
0.0551172
0.0179801
0.00471332
0.00117535
0.000290198
6.97394e-05
1.61111e-05
3.56514e-06
7.57069e-07
1.53782e-07
2.98464e-08
5.52539e-09
9.74079e-10
1.63313e-10
2.60131e-11
3.93355e-12
5.64299e-13
7.67528e-14
9.89507e-15
1.18574e-15
0.134268
0.137572
0.201876
0.280317
0.344605
0.394518
0.433438
0.464093
0.488292
0.507282
0.522603
0.534442
0.5435
0.550151
0.554558
0.55698
0.557857
0.557456
0.55606
0.553651
0.550834
0.547276
0.542606
0.53663
0.522723
0.486395
0.407684
0.302733
0.197883
0.112132
0.0503404
0.0162859
0.00429983
0.0010864
0.000271133
6.56982e-05
1.52866e-05
3.4047e-06
7.27306e-07
1.48542e-07
2.89737e-08
5.38868e-09
9.54091e-10
1.60617e-10
2.56844e-11
3.89864e-12
5.61373e-13
7.66346e-14
9.91575e-15
1.19226e-15
0.0177054
0.0471871
0.091973
0.157777
0.225203
0.283324
0.330981
0.369795
0.401198
0.426653
0.447396
0.463981
0.477197
0.487386
0.49482
0.50011
0.503618
0.505545
0.506077
0.505681
0.504674
0.502632
0.499502
0.49428
0.480479
0.444525
0.371759
0.276694
0.18143
0.102668
0.0455212
0.0146198
0.00389638
0.000999082
0.000252296
6.16976e-05
1.44715e-05
3.24626e-06
6.98141e-07
1.43466e-07
2.81426e-08
5.26165e-09
9.36197e-10
1.58342e-10
2.54344e-11
3.87751e-12
5.60713e-13
7.68657e-14
9.98706e-15
1.20551e-15
0.00500892
0.0178501
0.037265
0.0709225
0.11969
0.174344
0.225188
0.269554
0.307088
0.338514
0.364278
0.38545
0.402605
0.416266
0.426848
0.435081
0.441292
0.445727
0.448628
0.450493
0.451633
0.451563
0.450291
0.446176
0.433158
0.399532
0.334009
0.249195
0.163886
0.0924701
0.0404053
0.0128945
0.0034795
0.000907617
0.000232297
5.74116e-05
1.3592e-05
3.07281e-06
6.66236e-07
1.37906e-07
2.72311e-08
5.12241e-09
9.16651e-10
1.5588e-10
2.51697e-11
3.85658e-12
5.60442e-13
7.72023e-14
1.00791e-14
1.2221e-15
0.00220049
0.0083147
0.0168973
0.0304382
0.052566
0.0854482
0.1262
0.16881
0.208572
0.24389
0.273851
0.299018
0.319692
0.336635
0.350374
0.361457
0.370362
0.377474
0.3831
0.387708
0.391521
0.394232
0.394747
0.392085
0.380943
0.351246
0.293536
0.219484
0.144656
0.0811193
0.0348044
0.0110479
0.00303055
0.00080651
0.000209621
5.24447e-05
1.25509e-05
2.86708e-06
6.26416e-07
1.30803e-07
2.60266e-08
4.93022e-09
8.8805e-10
1.51953e-10
2.46813e-11
3.80343e-12
5.55799e-13
7.69817e-14
1.01045e-14
1.23133e-15
0.00122462
0.00459213
0.0090454
0.0152509
0.0244143
0.0383083
0.0587732
0.0864122
0.118691
0.151844
0.182332
0.209121
0.231993
0.25142
0.267827
0.281628
0.293397
0.30349
0.31224
0.320032
0.326971
0.332728
0.335712
0.334444
0.325795
0.30045
0.250989
0.187867
0.123802
0.0686031
0.0287668
0.00910374
0.00255123
0.000694477
0.000183654
4.65903e-05
1.12879e-05
2.61018e-06
5.75681e-07
1.21303e-07
2.43395e-08
4.64655e-09
8.43033e-10
1.45237e-10
2.37438e-11
3.68187e-12
5.41295e-13
7.54161e-14
9.95645e-15
1.21981e-15
0.000775712
0.0028368
0.00546551
0.00887242
0.0134497
0.0198182
0.0288934
0.0418673
0.0594997
0.0813275
0.105103
0.128453
0.150183
0.169896
0.187549
0.20327
0.217402
0.230213
0.241933
0.25276
0.262648
0.271071
0.276405
0.276543
0.270101
0.248754
0.20745
0.155047
0.10166
0.0551985
0.0225131
0.00713601
0.00205361
0.000573378
0.000154555
3.98207e-05
9.78164e-06
2.29089e-06
5.10994e-07
1.08773e-07
2.2028e-08
4.24108e-09
7.75535e-10
1.34593e-10
2.21574e-11
3.45878e-12
5.1176e-13
7.1745e-14
9.52943e-15
1.17403e-15
0.000525384
0.00187191
0.00355485
0.00566006
0.00835153
0.0118918
0.0166735
0.023252
0.032265
0.0440962
0.0584548
0.074428
0.090977
0.107432
0.123404
0.138686
0.153251
0.167119
0.180298
0.192734
0.204166
0.21387
0.220295
0.221317
0.216096
0.198061
0.164274
0.12207
0.0789844
0.041546
0.0164311
0.0052594
0.00156275
0.000448545
0.00012342
3.23442e-05
8.06673e-06
1.91549e-06
4.32625e-07
9.31258e-08
1.90498e-08
3.70131e-09
6.82537e-10
1.19382e-10
1.9798e-11
3.11206e-12
4.63529e-13
6.54013e-14
8.74122e-15
1.08308e-15
0.000365378
0.00127685
0.00240121
0.00378591
0.00551524
0.00772833
0.0106401
0.0145545
0.0198501
0.0268833
0.0356747
0.0459498
0.0572761
0.0692935
0.0817265
0.0943652
0.107054
0.119648
0.131988
0.143815
0.154684
0.163752
0.169602
0.170452
0.165612
0.150101
0.123174
0.0903325
0.0569603
0.0286286
0.0110159
0.00360309
0.00111056
0.000327985
9.22135e-05
2.46133e-05
6.24065e-06
1.50406e-06
3.44285e-07
7.50069e-08
1.5509e-08
3.0426e-09
5.6605e-10
9.98203e-11
1.66807e-11
2.6409e-12
3.96025e-13
5.62414e-14
7.56453e-15
9.42656e-16
0.000254672
0.000878943
0.00164242
0.00257613
0.00373163
0.00519324
0.00709438
0.00963703
0.0130897
0.0177204
0.02361
0.0306098
0.0385116
0.047132
0.0563168
0.065938
0.0758623
0.085931
0.0959321
0.105534
0.114222
0.121183
0.125215
0.125142
0.120118
0.106736
0.0860357
0.0615214
0.0371354
0.0176628
0.00670785
0.00227073
0.000726565
0.000220675
6.34285e-05
1.72608e-05
4.45356e-06
1.09036e-06
2.53117e-07
5.58416e-08
1.16767e-08
2.31385e-09
4.34413e-10
7.72519e-11
1.30102e-11
2.07465e-12
3.1322e-13
4.477e-14
6.05929e-15
7.59302e-16
0.000175309
0.000600564
0.00111801
0.00174906
0.00252773
0.00350951
0.00478349
0.00648709
0.00881884
0.011993
0.0160913
0.0210332
0.0266864
0.0329145
0.0396013
0.0466475
0.0539365
0.0613193
0.0685843
0.0754134
0.0813345
0.0856674
0.0875091
0.0863557
0.0809678
0.0698755
0.0546447
0.0373674
0.0211621
0.00958134
0.0036824
0.00129827
0.000430108
0.000134113
3.94087e-05
1.09391e-05
2.87356e-06
7.14947e-07
1.68368e-07
3.7619e-08
7.95528e-09
1.59243e-09
3.01704e-10
5.41003e-11
9.18099e-12
1.47434e-12
2.24048e-13
3.22229e-14
4.3871e-15
5.52605e-16
0.000117942
0.000402478
0.000748063
0.00116941
0.00168915
0.00234383
0.00319245
0.00432679
0.00587944
0.00800987
0.0108135
0.0142604
0.0182482
0.0226624
0.0273909
0.0323313
0.0373665
0.042352
0.0470925
0.0513184
0.054658
0.0566252
0.0567136
0.0546729
0.0493381
0.0409023
0.0303934
0.0194193
0.0102738
0.00456342
0.0018085
0.0006615
0.000225606
7.20356e-05
2.16206e-05
6.11849e-06
1.63559e-06
4.13364e-07
9.87119e-08
2.23274e-08
4.77251e-09
9.6442e-10
1.84293e-10
3.33053e-11
5.69199e-12
9.19915e-13
1.40622e-13
2.03366e-14
2.78351e-15
3.52127e-16
7.64864e-05
0.000261034
0.000485757
0.000760323
0.0010989
0.00152369
0.00207003
0.002793
0.00377174
0.00510617
0.00688377
0.00912114
0.011761
0.0147039
0.0178395
0.0210591
0.0242465
0.0272696
0.0299657
0.0321311
0.0335152
0.0338296
0.032998
0.030457
0.0260957
0.0203689
0.0140745
0.00835417
0.00425322
0.00191099
0.000779273
0.000292626
0.000102045
3.32501e-05
1.01697e-05
2.92811e-06
7.9502e-07
2.03734e-07
4.92507e-08
1.1259e-08
2.42899e-09
4.94858e-10
9.52452e-11
1.73221e-11
2.97698e-12
4.83535e-13
7.42515e-14
1.07839e-14
1.4821e-15
1.87973e-16
4.63007e-05
0.000159521
0.000299154
0.000470841
0.000682207
0.000944641
0.00127574
0.00170282
0.00226526
0.00301329
0.00400089
0.00526224
0.00678462
0.00850584
0.0103395
0.0121865
0.0139415
0.0154971
0.016736
0.0175314
0.0177466
0.0173758
0.0161564
0.0140347
0.0112492
0.00815315
0.00525586
0.00298761
0.00150744
0.000684421
0.000283284
0.000107993
3.82384e-05
1.26491e-05
3.92424e-06
1.14455e-06
3.14321e-07
8.13528e-08
1.98343e-08
4.5667e-09
9.91156e-10
2.02965e-10
3.92329e-11
7.16018e-12
1.23403e-12
2.00917e-13
3.09191e-14
4.49923e-15
6.19394e-16
7.84624e-17
2.38831e-05
8.60424e-05
0.000165932
0.000265827
0.000388495
0.0005382
0.00072118
0.000947379
0.00123207
0.00159459
0.00205635
0.00263502
0.00333476
0.00413342
0.00498181
0.00581666
0.0065696
0.00717156
0.00755706
0.00766976
0.00752899
0.00702748
0.00614464
0.00500994
0.00375949
0.00256531
0.0015782
0.000871842
0.000433823
0.000195969
8.11306e-05
3.10486e-05
1.10574e-05
3.68044e-06
1.1483e-06
3.36494e-07
9.27447e-08
2.40652e-08
5.87611e-09
1.35376e-09
2.93803e-10
6.01257e-11
1.16081e-11
2.11488e-12
3.63724e-13
5.90739e-14
9.0663e-15
1.31562e-15
1.80613e-16
2.269e-17
7.46141e-06
3.31091e-05
7.20216e-05
0.000121908
0.000182654
0.000254583
0.000339158
0.00043836
0.00055564
0.000696098
0.000865784
0.00106963
0.00130838
0.00157528
0.0018518
0.00211161
0.00232535
0.00246605
0.00251275
0.00247642
0.00232594
0.00204354
0.00168343
0.00128854
0.000907897
0.000584666
0.000342211
0.000181433
8.74489e-05
3.85934e-05
1.57217e-05
5.94716e-06
2.09732e-06
6.91524e-07
2.13769e-07
6.2077e-08
1.69511e-08
4.35337e-09
1.05148e-09
2.39568e-10
5.14334e-11
1.04152e-11
1.98915e-12
3.5844e-13
6.09731e-14
9.7951e-15
1.48715e-15
2.13545e-16
2.90217e-17
3.56671e-18
2.95677e-07
5.88526e-06
1.62902e-05
3.11434e-05
4.93028e-05
6.84141e-05
8.93661e-05
0.000112889
0.000138815
0.000167454
0.000199644
0.000236057
0.0002767
0.000319968
0.000361773
0.000397467
0.000421816
0.000430972
0.000422988
0.000396701
0.000351533
0.000292419
0.000227445
0.000164544
0.00011029
6.83492e-05
3.89479e-05
2.04037e-05
9.85876e-06
4.42822e-06
1.89485e-06
7.36573e-07
2.3659e-07
6.32464e-08
1.77716e-08
5.6175e-09
1.70219e-09
3.85214e-10
7.87438e-11
1.59349e-11
3.58232e-12
8.03395e-13
1.3791e-13
2.25207e-14
3.56795e-15
5.43398e-16
7.92576e-17
1.10367e-17
1.46363e-18
1.7148e-19
)
;

boundaryField
{
    AXIS
    {
        type            empty;
    }
    OUTLET
    {
        type            inletOutlet;
        inletValue      uniform 0;
        value           nonuniform List<scalar> 
25
(
1.19961e-15
1.20103e-15
1.20141e-15
1.1994e-15
1.19562e-15
1.19103e-15
1.18686e-15
1.18455e-15
1.18574e-15
1.19226e-15
1.20551e-15
1.2221e-15
1.23133e-15
1.21981e-15
1.17403e-15
1.08308e-15
9.42656e-16
7.59302e-16
5.52605e-16
3.52127e-16
1.87973e-16
7.84624e-17
2.269e-17
3.56671e-18
1.7148e-19
)
;
    }
    COFLOW
    {
        type            fixedValue;
        value           uniform 0;
    }
    PILOT
    {
        type            fixedValue;
        value           uniform 0.271;
    }
    FUEL
    {
        type            fixedValue;
        value           uniform 1;
    }
    WALL
    {
        type            zeroGradient;
    }
    front
    {
        type            wedge;
    }
    back
    {
        type            wedge;
    }
}


// ************************************************************************* //
