/*--------------------------------*- C++ -*----------------------------------*\
| =========                 |                                                 |
| \\      /  F ield         | OpenFOAM: The Open Source CFD Toolbox           |
|  \\    /   O peration     | Version:  2.4.x                                 |
|   \\  /    A nd           | Web:      www.OpenFOAM.org                      |
|    \\/     M anipulation  |                                                 |
\*---------------------------------------------------------------------------*/
FoamFile
{
    version     2.0;
    format      ascii;
    class       volScalarField;
    location    "0.03";
    object      alphat;
}
// * * * * * * * * * * * * * * * * * * * * * * * * * * * * * * * * * * * * * //

dimensions      [1 -1 -1 0 0 0 0];

internalField   nonuniform List<scalar> 
1250
(
0.0365525
0.0208658
0.0128079
0.00837817
0.00598345
0.00466764
0.00384837
0.00328727
0.00285941
0.00250945
0.0022265
0.00201604
0.0018329
0.00167388
0.00154289
0.00141497
0.0013194
0.00127413
0.00124813
0.00124233
0.00136431
0.00188193
0.00243887
0.0028183
0.0030705
0.00295781
0.00258409
0.00205056
0.00178441
0.00186201
0.00199938
0.00205143
0.00206107
0.00206156
0.0020609
0.00205987
0.00205864
0.00205867
0.00205881
0.00205922
0.00205901
0.00205759
0.0020576
0.00205826
0.0020602
0.00206048
0.00205856
0.00205693
0.00205734
0.00205735
0.0351338
0.0190124
0.0113348
0.00737115
0.00534211
0.00424608
0.00356434
0.00308587
0.00269377
0.00238515
0.00213541
0.00194459
0.00177671
0.00163005
0.00150272
0.0013889
0.00129587
0.00125744
0.00123798
0.00123396
0.00136607
0.00189222
0.00244618
0.00281897
0.00307026
0.00295605
0.0025817
0.00204831
0.00178445
0.00186297
0.00199981
0.00205144
0.00206096
0.00206142
0.0020608
0.00205981
0.0020586
0.00205858
0.0020587
0.0020591
0.00205889
0.00205749
0.0020575
0.00205817
0.00206011
0.00206038
0.00205841
0.00205684
0.00205724
0.00205725
0.0313029
0.0148407
0.00838388
0.00555428
0.00424851
0.00353318
0.00306642
0.00268787
0.00239639
0.00215998
0.00196654
0.00180723
0.00166541
0.00153772
0.00143075
0.00133326
0.00124825
0.00122247
0.00120524
0.00121799
0.00137716
0.00191856
0.00246379
0.00282094
0.00307
0.00295146
0.00257541
0.00204251
0.00178485
0.00186577
0.00200105
0.00205153
0.00206074
0.00206113
0.00206058
0.00205969
0.00205849
0.00205838
0.00205846
0.00205884
0.00205864
0.00205721
0.00205724
0.00205795
0.00205989
0.00206014
0.00205813
0.00205661
0.002057
0.00205699
0.0230005
0.00902521
0.00511347
0.00380008
0.00321841
0.00280553
0.00252457
0.00227246
0.00208282
0.00191132
0.00176525
0.0016423
0.001532
0.00142938
0.0013416
0.00126204
0.00118801
0.00117564
0.00116839
0.00120185
0.00140264
0.00195515
0.00248975
0.00282496
0.00306999
0.00294357
0.00256475
0.00203388
0.00178587
0.00187051
0.00200312
0.00205172
0.00206042
0.0020607
0.00206023
0.00205948
0.0020583
0.00205807
0.0020581
0.00205847
0.00205826
0.00205682
0.00205686
0.00205761
0.00205956
0.00205979
0.00205774
0.00205628
0.00205663
0.00205661
0.0101652
0.00385192
0.00306673
0.00273168
0.00249915
0.00227526
0.00212342
0.00195042
0.00180834
0.00168472
0.00158128
0.00148702
0.00140125
0.0013207
0.00125068
0.00118664
0.00112502
0.00112638
0.00113605
0.0011953
0.00144301
0.00200179
0.00251892
0.00283417
0.0030692
0.00293252
0.00254948
0.00202451
0.00178782
0.0018772
0.00200593
0.00205198
0.00206
0.00206014
0.00205976
0.00205914
0.00205798
0.00205764
0.00205763
0.00205796
0.00205775
0.00205631
0.00205636
0.00205715
0.0020591
0.00205932
0.00205723
0.00205583
0.00205615
0.00205611
0.0022047
0.00226909
0.00227791
0.00216582
0.00206203
0.00191485
0.00179824
0.0016822
0.00157911
0.00149295
0.00142067
0.00135133
0.00128655
0.00122127
0.00116566
0.0011153
0.00106695
0.00108368
0.00111114
0.00120072
0.00149331
0.00206484
0.00254893
0.00285042
0.00305993
0.00291788
0.00252948
0.00201303
0.001791
0.00188574
0.00200938
0.00205227
0.00205947
0.00205945
0.00205913
0.00205863
0.00205746
0.00205705
0.00205704
0.00205734
0.0020571
0.00205567
0.00205573
0.00205656
0.00205852
0.00205872
0.0020566
0.00205524
0.00205553
0.00205548
0.000826358
0.00148778
0.00174081
0.00177102
0.0017527
0.00163997
0.00155863
0.00147496
0.00139635
0.00133259
0.00127671
0.00122341
0.00117466
0.00112877
0.00109075
0.00105253
0.00101921
0.00105302
0.00109833
0.00122062
0.00157355
0.00211897
0.00257828
0.0028699
0.0030451
0.00289906
0.00250474
0.00199989
0.00179594
0.00189593
0.0020133
0.00205256
0.00205882
0.00205863
0.00205836
0.00205791
0.00205667
0.0020563
0.00205637
0.0020566
0.0020563
0.00205491
0.00205496
0.00205583
0.0020578
0.002058
0.00205583
0.00205452
0.00205478
0.00205472
0.000337483
0.00103201
0.00132958
0.0014351
0.00145822
0.00140526
0.00135186
0.00129235
0.00123569
0.00119183
0.00115098
0.00111237
0.00107768
0.00104581
0.00102124
0.00100032
0.000987651
0.00103973
0.00110066
0.00125863
0.00166991
0.0021799
0.00260083
0.00288917
0.00302902
0.00287768
0.00247542
0.00198574
0.00180286
0.00190751
0.00201753
0.00205279
0.00205807
0.0020577
0.00205745
0.00205696
0.0020556
0.00205539
0.00205571
0.00205577
0.00205531
0.00205403
0.00205406
0.00205498
0.00205696
0.00205715
0.00205493
0.00205366
0.0020539
0.00205383
0.000341875
0.000752397
0.000994343
0.00111667
0.00117736
0.0011824
0.0011562
0.00112887
0.00109377
0.00106787
0.00104026
0.00101433
0.000991721
0.000973133
0.000961832
0.000955605
0.000968659
0.00104077
0.00111531
0.00130838
0.00177461
0.00224388
0.00261101
0.00290372
0.0030132
0.00285453
0.0024418
0.00197135
0.00181187
0.00192013
0.00202186
0.00205294
0.00205719
0.00205665
0.0020564
0.00205579
0.00205424
0.00205412
0.00205469
0.00205458
0.00205411
0.00205301
0.00205303
0.00205401
0.00205602
0.00205617
0.0020539
0.00205267
0.0020529
0.00205282
0.000649769
0.00068273
0.00076427
0.000855106
0.00092676
0.000960385
0.000966726
0.000965822
0.000948077
0.000939348
0.000923661
0.000913476
0.000905067
0.000899465
0.000901078
0.000910588
0.000951525
0.00103551
0.00113869
0.0014043
0.00186518
0.00229808
0.00261962
0.00291845
0.00299318
0.00282686
0.00240782
0.00195758
0.00182301
0.00193337
0.00202611
0.00205297
0.00205621
0.00205551
0.00205522
0.0020544
0.00205277
0.0020528
0.00205351
0.00205328
0.0020528
0.00205188
0.00205189
0.00205292
0.00205497
0.00205509
0.00205276
0.00205155
0.00205178
0.0020517
0.00286012
0.00112786
0.000735121
0.000683596
0.000723587
0.000767446
0.000795334
0.00081543
0.000824951
0.000835693
0.000828329
0.000834158
0.000839037
0.000848492
0.000866426
0.000897884
0.000961853
0.00105936
0.00120757
0.00153019
0.00194309
0.00234657
0.00264287
0.00292487
0.00296926
0.00279426
0.00237224
0.00194487
0.00183658
0.00194718
0.00203023
0.00205284
0.00205508
0.00205425
0.00205386
0.00205294
0.00205134
0.00205145
0.00205222
0.00205191
0.00205143
0.00205065
0.00205062
0.00205167
0.00205377
0.00205386
0.00205149
0.00205028
0.00205053
0.00205044
0.00579155
0.00232914
0.001127
0.000709456
0.000618213
0.000619971
0.000647457
0.000682098
0.000708054
0.000734385
0.000753089
0.000778328
0.000800365
0.00082999
0.000869463
0.000926652
0.00101257
0.00112775
0.00132089
0.00163934
0.00201678
0.00238388
0.00266924
0.00292017
0.00294255
0.0027564
0.00233004
0.00193297
0.00185359
0.00196221
0.00203438
0.00205253
0.00205376
0.00205282
0.00205227
0.00205126
0.0020498
0.00205001
0.00205076
0.00205042
0.00204999
0.00204927
0.00204915
0.0020502
0.00205235
0.00205243
0.00205005
0.00204881
0.00204908
0.00204899
0.00771103
0.00402557
0.00212053
0.00117097
0.000750184
0.000600966
0.000571724
0.000590299
0.000622274
0.000661569
0.000697635
0.000738113
0.000780123
0.000829312
0.00089023
0.000971136
0.00108036
0.00123187
0.0014454
0.00174295
0.00210064
0.00241748
0.00269723
0.00290442
0.00291004
0.00270544
0.00227751
0.00192208
0.00187515
0.00197881
0.00203861
0.00205201
0.00205218
0.00205116
0.00205041
0.00204938
0.0020482
0.00204854
0.00204912
0.00204884
0.00204847
0.00204772
0.00204745
0.00204848
0.00205068
0.00205075
0.0020484
0.00204711
0.0020474
0.00204731
0.00875408
0.0056046
0.00342212
0.00207945
0.00127611
0.000850105
0.000669439
0.000627609
0.000633953
0.000663898
0.000705311
0.000755935
0.000813612
0.000880427
0.000960962
0.00106278
0.00119397
0.00136787
0.00158771
0.00186785
0.0021838
0.00246258
0.00272708
0.00288501
0.00286912
0.00263946
0.00221228
0.00191506
0.00190206
0.0019966
0.00204267
0.00205121
0.00205034
0.00204929
0.00204833
0.00204718
0.00204627
0.00204682
0.00204726
0.0020471
0.00204687
0.00204599
0.0020455
0.00204652
0.00204875
0.00204883
0.00204656
0.00204519
0.0020455
0.00204542
0.00930375
0.00673491
0.00461131
0.00304511
0.00197816
0.00131859
0.000979837
0.000838509
0.000793302
0.000797252
0.000828087
0.000876534
0.000937016
0.00101025
0.00109986
0.00121158
0.00135207
0.00153002
0.00174043
0.00198832
0.00227042
0.00251832
0.00274375
0.00285593
0.00281235
0.00255111
0.00213963
0.0019152
0.00193452
0.00201453
0.00204614
0.00205001
0.00204821
0.00204721
0.00204623
0.00204506
0.00204429
0.00204476
0.0020451
0.00204511
0.00204501
0.00204393
0.00204332
0.00204435
0.00204656
0.00204664
0.00204452
0.00204308
0.00204341
0.00204333
0.00958576
0.00742141
0.005426
0.0037854
0.00255211
0.00174971
0.00131952
0.00112316
0.00104559
0.0010276
0.00104287
0.00107993
0.00113407
0.00120543
0.00129514
0.00140709
0.00154376
0.00171089
0.00190086
0.00211894
0.00235786
0.00256932
0.00274979
0.00281904
0.00273186
0.00243894
0.00207691
0.00192701
0.001971
0.00203078
0.00204843
0.00204827
0.00204577
0.00204488
0.00204399
0.00204285
0.00204218
0.00204224
0.0020426
0.00204278
0.00204256
0.00204138
0.00204087
0.00204196
0.00204405
0.00204411
0.0020422
0.00204077
0.00204111
0.00204104
0.00972848
0.00780165
0.00591059
0.00425516
0.00295171
0.00207225
0.00159846
0.00138008
0.00129445
0.00127327
0.0012858
0.00131942
0.00136889
0.00143426
0.00151703
0.00161922
0.00174405
0.00189434
0.00205764
0.00224113
0.00243455
0.00261687
0.00274347
0.00275789
0.00261383
0.0022992
0.00202481
0.00195458
0.00200704
0.00204298
0.00204886
0.00204576
0.00204289
0.00204214
0.00204145
0.00204037
0.00203977
0.00203952
0.0020398
0.00203982
0.00203935
0.00203827
0.0020381
0.00203931
0.00204105
0.00204101
0.00203939
0.00203812
0.00203846
0.0020384
0.00980937
0.00802986
0.00622393
0.00458741
0.00326444
0.00234231
0.00183287
0.00159979
0.00151413
0.00149821
0.00151642
0.0015536
0.00160447
0.00166819
0.00174539
0.00183824
0.00194834
0.00207737
0.00221168
0.00236045
0.00251508
0.00264508
0.00270387
0.0026502
0.00244914
0.00216179
0.00199873
0.00199524
0.00203544
0.00204885
0.00204666
0.00204199
0.00203909
0.00203848
0.00203812
0.00203725
0.00203649
0.00203575
0.00203559
0.00203539
0.00203452
0.00203405
0.00203466
0.00203612
0.002037
0.00203673
0.00203553
0.00203474
0.00203496
0.00203487
0.00987633
0.0082236
0.0065095
0.00491679
0.00359147
0.00263775
0.00207633
0.00181074
0.00171338
0.00169682
0.00171975
0.00176256
0.00181835
0.00188348
0.00195789
0.00204194
0.00213724
0.00224298
0.00234504
0.00245587
0.00256252
0.00262007
0.0026013
0.00247416
0.00224637
0.00206849
0.00201059
0.00203356
0.0020487
0.00204656
0.00204052
0.00203551
0.00203283
0.00203231
0.00203255
0.00203187
0.00203086
0.00203007
0.00202965
0.00202903
0.00202782
0.0020279
0.00202882
0.00203023
0.00203078
0.00203028
0.0020291
0.00202867
0.00202896
0.00202887
0.00995299
0.00844916
0.00686171
0.00534623
0.00403291
0.00302915
0.00238464
0.00203793
0.00189105
0.00186096
0.00188088
0.00192775
0.00198656
0.00205154
0.00212127
0.0021953
0.00227366
0.00235031
0.00241572
0.00248483
0.00251899
0.00249536
0.00240618
0.00224716
0.00210458
0.0020357
0.00203931
0.00204753
0.002042
0.00203339
0.0020268
0.00202218
0.00201969
0.00201921
0.00201953
0.00201966
0.00201955
0.00201892
0.00201777
0.00201628
0.00201491
0.00201509
0.00201616
0.00201707
0.00201735
0.00201703
0.00201592
0.00201598
0.00201655
0.00201636
0.0100367
0.00870165
0.0072747
0.00588307
0.00461758
0.00357018
0.00280684
0.00233204
0.00208313
0.00198167
0.00196947
0.00200674
0.00206152
0.00212234
0.0021837
0.00224373
0.00229789
0.0023351
0.00236401
0.00237601
0.00234394
0.00226232
0.00217184
0.00208235
0.00204001
0.00203702
0.00203406
0.00202179
0.00200915
0.00200037
0.00199473
0.00199061
0.0019879
0.00198737
0.00198801
0.00198888
0.00198921
0.0019884
0.00198633
0.00198496
0.00198415
0.00198387
0.00198437
0.00198533
0.00198587
0.00198541
0.00198431
0.00198413
0.00198499
0.00198518
0.010071
0.00882174
0.00753327
0.00629449
0.00515744
0.00416752
0.00335011
0.00273599
0.00234062
0.0021168
0.00201543
0.00199055
0.0020065
0.00204038
0.00207844
0.00211469
0.00213605
0.00214607
0.00214884
0.00212536
0.00208528
0.00204044
0.00200919
0.00199768
0.00199063
0.00197499
0.00195498
0.00193831
0.00192714
0.00192005
0.00191542
0.00191185
0.00190903
0.00190842
0.00190923
0.00191007
0.00191
0.00190883
0.00190665
0.00190602
0.00190687
0.00190762
0.00190693
0.0019055
0.00190503
0.00190526
0.00190554
0.00190551
0.00190557
0.00190538
0.00979789
0.00824741
0.00694726
0.00588057
0.00498364
0.00421583
0.00355817
0.00301138
0.00258652
0.00226265
0.00205114
0.00193862
0.00188662
0.00187141
0.00187337
0.00187768
0.00187799
0.00187743
0.00187305
0.0018656
0.0018582
0.00185017
0.00183796
0.00181865
0.00179395
0.00177006
0.00175152
0.00173868
0.00172987
0.00172462
0.00172048
0.00171754
0.00171486
0.00171347
0.00171372
0.00171389
0.00171292
0.0017124
0.0017112
0.00171064
0.00171108
0.00171171
0.0017115
0.00171057
0.00170899
0.00170909
0.00170965
0.00170942
0.00170971
0.00170982
0.00740008
0.00513985
0.00413412
0.00353668
0.00311207
0.00278468
0.00250807
0.00226302
0.00205009
0.0018638
0.00172332
0.00162837
0.00157021
0.00153699
0.00151855
0.00150517
0.00148907
0.00147066
0.00144915
0.00142407
0.0013967
0.00138523
0.00136352
0.00133795
0.00131544
0.00130005
0.00128907
0.0012814
0.00127614
0.00127198
0.00126873
0.00126634
0.0012643
0.00126309
0.00126273
0.00126216
0.00126132
0.00126172
0.00126154
0.00126073
0.00126097
0.00126107
0.00126095
0.00126075
0.00125973
0.00125875
0.00125868
0.00125892
0.00125863
0.00125834
0.000679164
0.000631424
0.000574813
0.000529254
0.000492108
0.000460757
0.000427194
0.000409614
0.000396866
0.000387136
0.000380287
0.000375924
0.000373446
0.00037217
0.000371492
0.00037098
0.000370417
0.00036973
0.000368928
0.000368055
0.000367158
0.000366261
0.000365357
0.00036449
0.000363704
0.000363014
0.000362429
0.000361972
0.000361646
0.000361427
0.000361284
0.00036118
0.000361093
0.000361027
0.000360985
0.000360959
0.000360951
0.000360969
0.000361
0.000361037
0.00036108
0.000361124
0.000361166
0.000361203
0.000361231
0.000361258
0.000361282
0.000361302
0.000361318
0.000361325
)
;

boundaryField
{
    AXIS
    {
        type            empty;
    }
    OUTLET
    {
        type            calculated;
        value           nonuniform List<scalar> 
25
(
0.00205735
0.00205725
0.00205699
0.00205661
0.00205611
0.00205547
0.00205471
0.00205382
0.00205281
0.00205169
0.00205044
0.00204899
0.00204731
0.00204541
0.00204333
0.00204104
0.0020384
0.00203486
0.00202887
0.00201635
0.00198518
0.00190538
0.00170981
0.00125833
0.000361325
)
;
    }
    COFLOW
    {
        type            calculated;
        value           nonuniform List<scalar> 
15
(
0.0106232
0.0106233
0.0106232
0.0106231
0.0106231
0.0106231
0.0106231
0.010623
0.010623
0.010623
0.010623
0.010623
0.010623
0.010623
0.010623
)
;
    }
    PILOT
    {
        type            calculated;
        value           nonuniform List<scalar> 5(0.00141104 0.00141107 0.00141119 0.00141123 0.00141127);
    }
    FUEL
    {
        type            calculated;
        value           nonuniform List<scalar> 5(0.0472891 0.0472877 0.0472935 0.0473104 0.0473209);
    }
    WALL
    {
        type            compressible::alphatWallFunction;
        Prt             0.85;
        value           nonuniform List<scalar> 
50
(
9.62186e-05
8.91398e-05
8.06577e-05
7.37553e-05
6.80734e-05
6.32267e-05
5.80069e-05
5.52648e-05
5.32604e-05
5.1726e-05
5.06439e-05
4.99534e-05
4.95604e-05
4.93577e-05
4.92501e-05
4.91698e-05
4.9083e-05
4.89782e-05
4.88569e-05
4.87247e-05
4.85885e-05
4.84507e-05
4.83107e-05
4.81753e-05
4.8052e-05
4.79429e-05
4.78503e-05
4.77781e-05
4.77265e-05
4.76921e-05
4.76694e-05
4.7653e-05
4.76391e-05
4.76286e-05
4.76219e-05
4.76177e-05
4.76164e-05
4.76194e-05
4.76243e-05
4.76301e-05
4.7637e-05
4.76439e-05
4.76506e-05
4.76564e-05
4.76608e-05
4.7665e-05
4.76689e-05
4.7672e-05
4.76745e-05
4.76756e-05
)
;
    }
    front
    {
        type            wedge;
    }
    back
    {
        type            wedge;
    }
}


// ************************************************************************* //
