/*--------------------------------*- C++ -*----------------------------------*\
| =========                 |                                                 |
| \\      /  F ield         | OpenFOAM: The Open Source CFD Toolbox           |
|  \\    /   O peration     | Version:  2.4.x                                 |
|   \\  /    A nd           | Web:      www.OpenFOAM.org                      |
|    \\/     M anipulation  |                                                 |
\*---------------------------------------------------------------------------*/
FoamFile
{
    version     2.0;
    format      ascii;
    class       volScalarField;
    location    "0.03";
    object      chi;
}
// * * * * * * * * * * * * * * * * * * * * * * * * * * * * * * * * * * * * * //

dimensions      [0 0 -1 0 0 0 0];

internalField   nonuniform List<scalar> 
1250
(
0.0306647
0.210738
0.657592
1.50382
2.82656
4.53828
6.46274
8.425
10.1922
11.7063
12.9635
13.827
14.4506
14.7596
14.9037
14.8781
14.6793
14.656
15.1035
16.894
23.1597
30.0668
29.7135
21.5127
11.565
4.84905
1.57321
0.379031
0.0693743
0.0117207
0.00226044
0.00048443
0.000105122
2.21775e-05
4.49563e-06
8.71947e-07
1.6129e-07
2.83728e-08
4.73827e-09
7.49508e-10
1.12163e-10
1.58646e-11
2.11718e-12
2.66536e-13
3.16439e-14
3.54752e-15
3.75491e-16
3.74925e-17
3.53296e-18
3.10683e-19
0.0359718
0.254672
0.81825
1.88718
3.5004
5.48513
7.62852
9.67096
11.4616
12.9196
14.0763
14.8562
15.3424
15.5716
15.636
15.4698
15.1966
15.0867
15.4654
17.3199
23.6417
30.1209
29.5953
21.3132
11.4565
4.80417
1.55847
0.375354
0.0687063
0.0116202
0.00224448
0.000481471
0.000104547
2.20681e-05
4.47559e-06
8.68454e-07
1.60718e-07
2.82851e-08
4.72563e-09
7.47816e-10
1.11955e-10
1.58415e-11
2.11495e-12
2.66361e-13
3.1636e-14
3.54811e-15
3.75715e-16
3.75305e-17
3.53809e-18
3.11233e-19
0.0525057
0.407492
1.39891
3.20665
5.64259
8.28369
10.7868
12.9298
14.6089
15.8507
16.7166
17.2099
17.4169
17.4359
17.1905
16.7879
16.3747
16.0469
16.3836
18.227
24.5683
30.2375
29.312
20.841
11.1881
4.69008
1.51992
0.365493
0.0668933
0.0113508
0.00220155
0.000473418
0.000102949
2.17561e-05
4.4167e-06
8.57811e-07
1.58889e-07
2.79879e-08
4.67964e-09
7.41083e-10
1.11026e-10
1.57209e-11
2.10025e-12
2.64684e-13
3.14583e-14
3.53065e-15
3.74131e-16
3.73983e-17
3.52822e-18
3.10563e-19
0.109936
1.00138
3.57558
7.41189
11.3444
14.7462
17.3164
19.192
20.262
20.8753
21.1233
21.0492
20.7183
20.228
19.5776
18.8171
18.174
17.5622
17.7229
19.6608
25.9168
30.4183
28.8296
20.1291
10.7642
4.50767
1.45765
0.349509
0.0639614
0.0109169
0.0021321
0.0004603
0.000100328
2.12399e-05
4.31844e-06
8.39871e-07
1.55769e-07
2.74726e-08
4.59859e-09
7.28995e-10
1.09322e-10
1.54941e-11
2.07183e-12
2.61336e-13
3.10887e-14
3.49242e-15
3.70428e-16
3.7063e-17
3.50003e-18
3.08359e-19
0.554763
4.80373
12.8481
20.0476
24.8105
27.738
28.8515
29.3051
28.9231
28.22
27.3062
26.2572
25.1119
23.9384
22.7169
21.4864
20.542
19.5889
19.5661
21.5083
27.3837
30.5374
28.0578
19.2312
10.1998
4.26514
1.37481
0.328324
0.0600934
0.0103452
0.00204003
0.000442817
9.6824e-05
2.05477e-05
4.18637e-06
8.15702e-07
1.51551e-07
2.67727e-08
4.488e-09
7.12431e-10
1.06975e-10
1.51802e-11
2.03228e-12
2.56647e-13
3.05671e-14
3.43798e-15
3.65102e-16
3.65749e-17
3.45835e-18
3.05049e-19
12.1789
30.1238
43.0377
47.3706
48.2612
47.6092
45.2605
42.6047
39.8418
37.2214
34.7533
32.4368
30.2682
28.2746
26.3871
24.6341
23.3484
22.0082
21.817
23.7989
28.6811
30.3732
26.9804
18.1297
9.53113
3.97449
1.27572
0.303131
0.0555203
0.00966801
0.00192991
0.000421771
9.25927e-05
1.97105e-05
4.02648e-06
7.86425e-07
1.46438e-07
2.59221e-08
4.3534e-09
6.92259e-10
1.04117e-10
1.47976e-11
1.98405e-12
2.50929e-13
2.99311e-14
3.37159e-15
3.58607e-16
3.59803e-17
3.40762e-18
3.01028e-19
23.7804
62.5896
75.9057
76.0906
72.4982
68.1422
61.9296
56.1475
50.9242
46.3517
42.3061
38.7201
35.5437
32.7446
30.1994
27.9604
26.3384
24.5997
24.2793
26.2542
29.4075
29.9063
25.5607
16.8667
8.78592
3.64941
1.16528
0.275262
0.0504974
0.00892065
0.00180682
0.000398065
8.78113e-05
1.8763e-05
3.84543e-06
7.53285e-07
1.4065e-07
2.49584e-08
4.20085e-09
6.69437e-10
1.0089e-10
1.43662e-11
1.92984e-12
2.44524e-13
2.92213e-14
3.29786e-15
3.5144e-16
3.53292e-17
3.35263e-18
2.96725e-19
9.64634
55.3512
84.207
89.2581
86.1962
80.6037
73.1713
65.9526
59.3854
53.596
48.4885
44.0045
40.1001
36.6868
33.6246
31.0295
29.1097
27.0137
26.6336
28.3376
29.582
29.0071
23.8386
15.475
7.9923
3.30408
1.04864
0.246108
0.0452835
0.00813962
0.00167619
0.000372684
8.26747e-05
1.77437e-05
3.65064e-06
7.17666e-07
1.34437e-07
2.39237e-08
4.03718e-09
6.45047e-10
9.74562e-11
1.39092e-11
1.87272e-12
2.37821e-13
2.84849e-14
3.22216e-15
3.44176e-16
3.46804e-17
3.299e-18
2.92647e-19
3.84353
32.0315
65.533
81.5406
84.1198
81.6044
76.0368
69.4413
63.1004
57.174
51.8771
47.1769
43.0387
39.3689
36.0689
33.3127
31.1528
28.8523
28.4918
29.4589
29.2086
27.6896
21.8431
14.0019
7.17505
2.95291
0.930827
0.217005
0.0401203
0.00735966
0.00154347
0.000346649
7.73882e-05
1.66935e-05
3.45005e-06
6.81047e-07
1.28064e-07
2.28666e-08
3.87069e-09
6.20366e-10
9.39969e-11
1.3452e-11
1.81615e-12
2.31262e-13
2.77748e-14
3.15054e-15
3.3747e-16
3.41007e-17
3.2532e-18
2.89378e-19
1.78499
12.4811
34.8331
55.7701
67.0784
70.4371
69.5663
65.7592
61.5483
56.6324
52.0857
47.7146
43.7772
40.2363
37.0305
34.3244
31.9852
29.8475
29.4106
29.2921
28.2222
25.8672
19.7966
12.4968
6.37517
2.60972
0.816578
0.189132
0.0352186
0.00661166
0.00141387
0.000320981
7.21597e-05
1.56544e-05
3.25186e-06
6.44971e-07
1.21802e-07
2.18329e-08
3.70923e-09
5.96614e-10
9.07035e-11
1.30227e-11
1.76391e-12
2.25331e-13
2.71499e-14
3.08977e-15
3.32057e-16
3.36658e-17
3.2226e-18
2.87585e-19
0.171144
2.59392
11.464
26.7067
41.3743
50.6568
54.849
55.2273
53.9218
51.012
48.2569
44.8875
41.7598
38.7896
36.0399
33.6398
31.4612
29.7192
28.9987
28.0002
26.6707
23.5604
17.651
11.0008
5.5906
2.27566
0.706505
0.162643
0.030599
0.00589717
0.0012876
0.000295733
6.70006e-05
1.46288e-05
3.05662e-06
6.09516e-07
1.15672e-07
2.08291e-08
3.55403e-09
5.7404e-10
8.76213e-11
1.26291e-11
1.71725e-12
2.20215e-13
2.66355e-14
3.04307e-15
3.28327e-16
3.34197e-17
3.21186e-18
2.87725e-19
0.046171
0.525067
2.62241
8.20773
17.3817
27.393
34.8339
38.9818
40.7481
40.64
39.8444
38.1502
36.4264
34.4981
32.5852
30.8123
29.1395
28.0709
27.113
25.8741
24.4275
20.8474
15.3554
9.45895
4.78409
1.93617
0.595679
0.136339
0.0260298
0.00517479
0.00115648
0.000269116
6.15171e-05
1.35325e-05
2.84707e-06
5.71319e-07
1.09049e-07
1.97431e-08
3.3862e-09
5.49643e-10
8.42981e-11
1.22069e-11
1.66756e-12
2.14824e-13
2.61023e-14
2.99597e-15
3.24752e-16
3.3211e-17
3.20684e-18
2.88569e-19
0.0208398
0.158836
0.63308
1.9534
4.9527
9.96377
15.9407
21.1054
24.7298
26.8558
27.9303
28.1488
27.9068
27.3481
26.6391
25.8754
25.123
24.5408
23.9085
23.0076
21.3163
17.7261
12.8782
7.8454
3.9458
1.58491
0.481848
0.109664
0.0213824
0.0044138
0.00101296
0.000239266
5.52645e-05
1.22638e-05
2.60095e-06
5.25743e-07
1.01016e-07
1.8404e-08
3.17557e-09
5.18372e-10
7.99374e-11
1.16378e-11
1.59825e-12
2.06967e-13
2.52779e-14
2.9165e-15
3.17793e-16
3.26708e-17
3.17132e-18
2.86808e-19
0.0116076
0.0673878
0.214621
0.562107
1.34515
2.92621
5.44786
8.5312
11.5492
14.1011
16.0719
17.4888
18.4677
19.1226
19.5536
19.8208
19.9679
20.0387
19.8557
19.2503
17.5972
14.3805
10.302
6.20732
3.0999
1.23107
0.368134
0.0834183
0.016763
0.00362031
0.000856065
0.000205639
4.80637e-05
1.07731e-05
2.30578e-06
4.69957e-07
9.09739e-08
1.66894e-08
2.89896e-09
4.76165e-10
7.38683e-11
1.08175e-11
1.49413e-12
1.94568e-13
2.38959e-14
2.77246e-15
3.03781e-16
3.1406e-17
3.06562e-18
2.78724e-19
0.00702058
0.0348505
0.0961365
0.225353
0.493597
1.02392
1.94092
3.24396
4.80254
6.46024
8.08394
9.58632
10.9328
12.125
13.1737
14.0775
14.8202
15.3559
15.4989
15.1189
13.6248
10.99
7.76236
4.6285
2.28547
0.891471
0.26063
0.0590822
0.0123887
0.00282222
0.000689613
0.000168764
3.99725e-05
9.06112e-06
1.95913e-06
4.02977e-07
7.86574e-08
1.45408e-08
2.54375e-09
4.20598e-10
6.56621e-11
9.67509e-12
1.3443e-12
1.76076e-13
2.175e-14
2.53803e-15
2.79683e-16
2.90816e-17
2.85503e-18
2.60988e-19
0.00432254
0.0197666
0.0505259
0.111975
0.235672
0.476601
0.890095
1.48784
2.24805
3.14336
4.14083
5.20734
6.30811
7.41391
8.49495
9.50921
10.3937
11.0485
11.2968
11.0171
9.79769
7.80755
5.43074
3.19588
1.55121
0.588342
0.167229
0.038318
0.00853063
0.00206431
0.000522213
0.000130388
3.13397e-05
7.19303e-06
1.57267e-06
3.2673e-07
6.43489e-08
1.19942e-08
2.11384e-09
3.51935e-10
5.53051e-11
8.19988e-12
1.14615e-12
1.51005e-13
1.87627e-14
2.2021e-15
2.44043e-16
2.55213e-17
2.51986e-18
2.31594e-19
0.00261844
0.0114792
0.0283105
0.0612712
0.127392
0.25666
0.478677
0.801436
1.21785
1.72351
2.31569
2.99058
3.7385
4.54219
5.37341
6.18589
6.90695
7.43064
7.61831
7.37376
6.46194
5.07662
3.46385
2.00081
0.944468
0.343556
0.094961
0.0224865
0.00541698
0.00139683
0.000365866
9.32933e-05
2.27837e-05
5.30054e-06
1.17277e-06
2.4626e-07
4.89628e-08
9.20518e-09
1.63467e-09
2.74084e-10
4.33578e-11
6.46782e-12
9.09335e-13
1.20495e-13
1.50598e-14
1.7775e-15
1.98064e-16
2.08268e-17
2.06782e-18
1.91044e-19
0.00153322
0.00657328
0.0159163
0.0340443
0.0704534
0.142334
0.268177
0.45464
0.699019
0.999597
1.35758
1.77388
2.24567
2.76344
3.30675
3.83906
4.30241
4.61533
4.69513
4.4702
3.84788
2.96153
1.96995
1.10445
0.497293
0.171144
0.0468941
0.0118709
0.00313738
0.000859862
0.000232822
6.06596e-05
1.50666e-05
3.55613e-06
7.96642e-07
1.6911e-07
3.39557e-08
6.44028e-09
1.15251e-09
1.94559e-10
3.09757e-11
4.64726e-12
6.56941e-13
8.75281e-14
1.10035e-14
1.30568e-15
1.46218e-16
1.54525e-17
1.5424e-18
1.43201e-19
0.000866897
0.00364902
0.00868777
0.0183095
0.0375111
0.0756756
0.144362
0.250037
0.392137
0.569278
0.781429
1.02829
1.30707
1.61017
1.92258
2.21876
2.46098
2.59956
2.59831
2.41274
2.02721
1.50895
0.96706
0.514226
0.215682
0.070873
0.0201163
0.00564361
0.00163488
0.000472237
0.000131789
3.5078e-05
8.86537e-06
2.12371e-06
4.81714e-07
1.03374e-07
2.09548e-08
4.00743e-09
7.22435e-10
1.22762e-10
1.96606e-11
2.9652e-12
4.21291e-13
5.64164e-14
7.12822e-15
8.49872e-16
9.56107e-17
1.01498e-17
1.01782e-18
9.49063e-20
0.000475749
0.00195541
0.00453813
0.00929561
0.0185078
0.036625
0.0700699
0.124214
0.200483
0.297853
0.414899
0.550006
0.699816
0.858116
1.01449
1.1532
1.25361
1.29149
1.25697
1.12827
0.909217
0.642958
0.386616
0.189277
0.0740741
0.0245016
0.00765604
0.00240707
0.000750942
0.000226057
6.47889e-05
1.76016e-05
4.52485e-06
1.09959e-06
2.52435e-07
5.47056e-08
1.11819e-08
2.15438e-09
3.91004e-10
6.68387e-11
1.07581e-11
1.62987e-12
2.32549e-13
3.12766e-14
3.96767e-15
4.74801e-16
5.36129e-17
5.71227e-18
5.74965e-19
5.37967e-20
0.000252953
0.00100973
0.00226281
0.00442933
0.00835241
0.0156789
0.0291592
0.0520318
0.0864221
0.1325
0.189015
0.253813
0.323775
0.394502
0.459818
0.51165
0.540607
0.539295
0.505857
0.428621
0.323409
0.211501
0.11611
0.0528159
0.0206163
0.00745563
0.00262916
0.000901907
0.000295715
9.17939e-05
2.6908e-05
7.44521e-06
1.94342e-06
4.78222e-07
1.10907e-07
2.42318e-08
4.98712e-09
9.66596e-10
1.76343e-10
3.0261e-11
4.8863e-12
7.42699e-13
1.06296e-13
1.43333e-14
1.82256e-15
2.1865e-16
2.47492e-17
2.6438e-18
2.66735e-19
2.49989e-20
0.000127184
0.000499802
0.00108775
0.00202893
0.0035688
0.0061494
0.0105486
0.0179266
0.02947
0.0459295
0.06706
0.0916036
0.117575
0.142429
0.163176
0.176589
0.179828
0.17276
0.151453
0.11885
0.0824741
0.0496934
0.0258979
0.0119706
0.00511191
0.0020672
0.000791276
0.000284849
9.62164e-05
3.0519e-05
9.10101e-06
2.55346e-06
6.74051e-07
1.67319e-07
3.90623e-08
8.57874e-09
1.7726e-09
3.44542e-10
6.29786e-11
1.08191e-11
1.74771e-12
2.65744e-13
3.80716e-14
5.13895e-15
6.53576e-16
7.83712e-17
8.86818e-18
9.47751e-19
9.56838e-20
8.95829e-21
5.6452e-05
0.000236535
0.000524105
0.000953195
0.00157405
0.00247
0.00377954
0.00571448
0.00853675
0.0125455
0.0178032
0.0239681
0.0304001
0.0361767
0.0403361
0.0420955
0.041377
0.0377233
0.030944
0.0229023
0.0152434
0.0091425
0.00498291
0.00249474
0.00115299
0.000492409
0.00019465
7.14998e-05
2.4511e-05
7.86101e-06
2.36434e-06
6.67119e-07
1.7671e-07
4.39451e-08
1.02606e-08
2.25083e-09
4.64081e-10
8.98859e-11
1.63654e-11
2.80087e-12
4.50717e-13
6.82595e-14
9.7381e-15
1.30875e-15
1.6578e-16
1.97936e-17
2.23063e-18
2.3752e-19
2.38945e-20
2.22159e-21
1.92199e-05
0.000116955
0.000291961
0.000527251
0.000813217
0.00114641
0.00153724
0.00201241
0.00260069
0.0033402
0.00422273
0.00519539
0.00614449
0.00691189
0.00732815
0.00732125
0.00695121
0.00616799
0.0050424
0.00377824
0.00258447
0.00158127
0.000879374
0.000448315
0.000208961
8.92452e-05
3.51885e-05
1.288e-05
4.3948e-06
1.40211e-06
4.18746e-07
1.17131e-07
3.07009e-08
7.54544e-09
1.74033e-09
3.76957e-10
7.6688e-11
1.46501e-11
2.63104e-12
4.44456e-13
7.06149e-14
1.0565e-14
1.48903e-15
1.97715e-16
2.47559e-17
2.92472e-18
3.26194e-19
3.43697e-20
3.42477e-21
3.12741e-22
6.78058e-06
0.000112759
0.000231781
0.000349735
0.000463515
0.000569256
0.00065663
0.000755174
0.000858687
0.000966175
0.00108271
0.00120307
0.00131095
0.0013824
0.00139525
0.00134145
0.0012231
0.0010453
0.000828674
0.000605219
0.000405344
0.000247212
0.000136883
6.92819e-05
3.22579e-05
1.38894e-05
5.55439e-06
2.07053e-06
7.2145e-07
2.35596e-07
7.31577e-08
2.05626e-08
4.99377e-09
1.08191e-09
2.31507e-10
5.0522e-11
1.04863e-11
1.90156e-12
2.9718e-13
4.52253e-14
7.34924e-15
1.1677e-15
1.54427e-16
1.7839e-17
2.02366e-18
2.39684e-19
2.8343e-20
2.79039e-21
2.5956e-22
2.22117e-23
)
;

boundaryField
{
    AXIS
    {
        type            empty;
    }
    OUTLET
    {
        type            zeroGradient;
    }
    COFLOW
    {
        type            calculated;
        value           uniform 0;
    }
    PILOT
    {
        type            calculated;
        value           uniform 0;
    }
    FUEL
    {
        type            calculated;
        value           uniform 0;
    }
    WALL
    {
        type            zeroGradient;
    }
    front
    {
        type            wedge;
    }
    back
    {
        type            wedge;
    }
}


// ************************************************************************* //
