/*--------------------------------*- C++ -*----------------------------------*\
| =========                 |                                                 |
| \\      /  F ield         | OpenFOAM: The Open Source CFD Toolbox           |
|  \\    /   O peration     | Version:  2.4.x                                 |
|   \\  /    A nd           | Web:      www.OpenFOAM.org                      |
|    \\/     M anipulation  |                                                 |
\*---------------------------------------------------------------------------*/
FoamFile
{
    version     2.0;
    format      ascii;
    class       volScalarField;
    location    "0.03";
    object      epsilon;
}
// * * * * * * * * * * * * * * * * * * * * * * * * * * * * * * * * * * * * * //

dimensions      [0 2 -3 0 0 0 0];

internalField   nonuniform List<scalar> 
1250
(
76.2582
136.289
196.517
280.528
388.726
512.587
637.008
757.32
850.86
926.234
986.866
1023.21
1049.72
1054.4
1052.4
1038.58
1025.63
1023.03
1037.76
1096.91
1322.04
2084.18
2823.41
2720.04
2089.9
1129.85
480.748
169.466
60.4804
28.8783
20.4219
18.2395
17.6861
17.5433
17.506
17.4982
17.4935
17.4894
17.4907
17.4871
17.4827
17.4852
17.4851
17.4803
17.4663
17.4617
17.4628
17.4584
17.4529
17.4535
80.258
146.596
221.329
325.872
455.288
596.237
735.146
854.325
946.971
1015.19
1067.41
1098.7
1113.79
1112.3
1102.45
1081.22
1059.61
1049.69
1057.38
1118.91
1345.34
2101.25
2818.78
2710.87
2078.01
1122.92
477.774
168.455
60.1965
28.7996
20.3989
18.2307
17.6808
17.539
17.5016
17.4936
17.4888
17.4851
17.4865
17.483
17.4788
17.4814
17.4813
17.4764
17.4624
17.4577
17.4589
17.4547
17.4495
17.4502
88.1209
177.245
301.006
468.74
656.941
837.264
989.565
1103.5
1181.04
1229.34
1260.23
1267.92
1261.36
1242.02
1209.1
1171.37
1136.1
1105.34
1104.34
1162.48
1387.96
2143.07
2809.58
2687.76
2045.96
1103.86
469.351
165.544
59.3799
28.5836
20.3401
18.2108
17.6705
17.5311
17.4939
17.4853
17.4804
17.4774
17.479
17.4756
17.4716
17.4741
17.4739
17.4687
17.4545
17.4499
17.4511
17.447
17.4422
17.443
104.851
271.269
545.316
871.385
1155.23
1366.41
1501
1577.38
1601.45
1596.34
1579.19
1542.64
1493.51
1436.72
1371.5
1307.16
1249.68
1190.96
1174.04
1227.46
1459.54
2214.34
2797.84
2652.21
1992.73
1072.24
455.253
160.695
58.025
28.2317
20.2471
18.1814
17.6566
17.5212
17.4843
17.475
17.4701
17.4681
17.47
17.4667
17.463
17.4655
17.4651
17.4596
17.4452
17.4407
17.4418
17.4378
17.4333
17.4343
200.236
695.495
1385.3
1969.46
2265.97
2386.85
2379.23
2330.18
2227.57
2119.74
2016.56
1908.16
1797.95
1688.6
1578.57
1478.77
1391.51
1299.66
1263.31
1309.23
1553.83
2303.16
2777.21
2603.63
1917.15
1028.72
435.929
154.13
56.1874
27.7571
20.1225
18.1427
17.6387
17.5087
17.4726
17.4627
17.4579
17.4568
17.4588
17.4557
17.4525
17.4551
17.4545
17.4486
17.434
17.4295
17.4305
17.4265
17.4225
17.4237
1116.39
2823.01
3974.8
4106.06
4026.9
3825.6
3529.77
3244.18
2971.59
2733.16
2520.72
2321.53
2136.67
1966.25
1807.08
1668.68
1546.92
1421.22
1367.23
1412.11
1670.39
2388.54
2741.6
2537.61
1822.27
975.024
412.18
146.108
53.9499
27.1798
19.9707
18.0953
17.6168
17.4932
17.4582
17.4481
17.4436
17.4431
17.4449
17.4421
17.4396
17.4422
17.4414
17.4352
17.4203
17.4158
17.4168
17.4128
17.4092
17.4105
1210.22
4159.72
5447.36
5505.96
5295.16
4958.82
4477.14
4027.26
3624.52
3279.95
2973.62
2695.7
2447.57
2225.1
2021.89
1849.11
1695.05
1541.58
1475.92
1524.88
1798.09
2455.04
2684.58
2449.21
1713.31
913.269
384.983
136.976
51.4103
26.523
19.7968
18.0401
17.5904
17.4742
17.4407
17.4308
17.4271
17.4264
17.4275
17.4252
17.4237
17.4261
17.4253
17.4187
17.4036
17.399
17.4
17.396
17.3928
17.3942
496.688
2390.11
4462.13
5224.53
5295.44
5135.42
4772.36
4355.31
3954.84
3590.51
3251.04
2939.52
2660.49
2408.38
2179.75
1987.38
1811.67
1642.35
1577.64
1637.87
1927.18
2486.4
2605.96
2335.51
1595.66
845.792
355.427
127.124
48.6751
25.8125
19.6062
17.9778
17.5594
17.4509
17.4192
17.4103
17.4079
17.4061
17.4052
17.4041
17.4041
17.4063
17.4053
17.3984
17.3831
17.3784
17.3794
17.3755
17.3725
17.3741
248.616
1014.71
2480.47
3689.91
4287.07
4463.37
4385.45
4159.3
3870.97
3570.4
3269.32
2982.39
2716.69
2470.96
2245.6
2052.93
1874.03
1708.42
1662.41
1738.67
2035.18
2474.78
2507.13
2200.08
1470.4
775.055
324.645
116.953
45.8511
25.0744
19.4049
17.9093
17.5233
17.4228
17.3931
17.3859
17.3854
17.383
17.3802
17.3802
17.3803
17.3817
17.3806
17.3735
17.3579
17.3533
17.3543
17.3505
17.3476
17.3492
147.778
362.639
958.519
1888.44
2698.24
3199.04
3439
3472.89
3407.13
3249.61
3050.42
2831.53
2615.11
2405.91
2210.12
2037.15
1873
1737.38
1720.53
1813.17
2102.78
2423.15
2391.85
2044.39
1342.68
703.558
293.871
106.839
43.0408
24.3344
19.1983
17.8353
17.4816
17.389
17.3616
17.3566
17.3572
17.354
17.3501
17.3507
17.3507
17.3516
17.3503
17.343
17.3271
17.3226
17.3237
17.3199
17.3171
17.3187
32.119
110.124
304.824
709.312
1300.67
1864.88
2276.66
2520.45
2634.39
2630.62
2578.96
2469.35
2342.2
2204.47
2068.19
1940.5
1815.37
1726.2
1736.24
1844.11
2116.77
2329.12
2253.37
1871.44
1213.18
631.466
263.247
96.8252
40.2551
23.5928
18.9852
17.7543
17.4328
17.3479
17.3232
17.3196
17.3204
17.3168
17.3126
17.3134
17.3134
17.314
17.3127
17.3053
17.2891
17.2848
17.286
17.2823
17.2794
17.281
17.2347
43.1887
102.604
225.215
459.977
817.079
1195.72
1510.82
1735.61
1867.39
1932.33
1935.97
1914.69
1864.92
1804.31
1740.91
1678.2
1658.47
1698.6
1832.69
2075.06
2191.33
2080.95
1678.06
1074.78
555.708
231.351
86.463
37.3618
22.8123
18.7552
17.6628
17.3752
17.2983
17.2768
17.2745
17.2748
17.2706
17.2665
17.2673
17.2673
17.268
17.2667
17.2592
17.2427
17.2387
17.2401
17.2365
17.2333
17.235
13.315
24.1178
44.1195
81.6624
151.9
277.596
476.612
709.529
928.219
1108.1
1243.18
1335.72
1397.1
1433.29
1453.79
1465.18
1478.21
1516.73
1607.95
1772.75
1960.6
2004.55
1867.5
1461.06
924.749
474.552
197.47
75.5026
34.2808
21.97
18.5031
17.561
17.3106
17.2422
17.2246
17.223
17.2219
17.2167
17.2137
17.2142
17.2142
17.2156
17.2144
17.2067
17.1899
17.1863
17.188
17.1843
17.1809
17.1825
11.8044
17.312
26.2945
40.6625
65.1565
108.088
180.007
290.907
425.047
566.002
700.451
821.322
926.643
1017.82
1098.48
1172.71
1248.89
1344.09
1475.97
1641.42
1776.24
1772.63
1614.35
1225.58
766.421
389.612
162.271
64.172
31.0632
21.0785
18.2341
17.4529
17.2426
17.1835
17.1703
17.1704
17.1679
17.1606
17.1582
17.1582
17.1583
17.1604
17.1592
17.1513
17.1345
17.1313
17.1332
17.1295
17.1258
17.1273
11.1401
14.5377
19.8506
27.9256
40.6078
61.3593
95.2508
146.842
216.319
301.363
397.439
499.297
603.242
707.689
812.555
919.132
1031.77
1158.78
1304.5
1449.91
1533.07
1501.9
1329.83
982.502
605.6
304.119
127.282
52.9617
27.8336
20.1715
17.9591
17.3436
17.1752
17.126
17.1158
17.1168
17.1144
17.1065
17.1037
17.104
17.104
17.1059
17.1045
17.0964
17.0798
17.0771
17.0792
17.0754
17.0713
17.0727
10.8474
13.3656
17.3405
23.4706
33.154
48.6432
72.2089
105.098
147.997
201.645
266.043
340.707
424.696
517.285
618.01
726.931
845.083
973.264
1105.09
1215.09
1254.6
1206.87
1033.47
745.16
450.607
222.885
94.845
42.5116
24.7819
19.3015
17.6938
17.2394
17.1123
17.073
17.0653
17.0668
17.0648
17.0571
17.0532
17.0535
17.0536
17.0548
17.0531
17.0446
17.0291
17.0273
17.0291
17.0249
17.0204
17.0218
10.7278
12.8935
16.3798
21.9028
30.8098
44.9618
65.5636
92.4192
125.386
165.057
212.258
267.94
332.825
407.325
491.617
585.41
687.459
793.965
893.28
961.807
968.983
910.781
750.009
526.844
310.855
151.561
67.1365
33.5682
22.1263
18.5304
17.4563
17.1466
17.057
17.0272
17.0212
17.0227
17.021
17.0149
17.0079
17.0078
17.0092
17.0091
17.0069
16.9976
16.9851
16.9847
16.9856
16.9801
16.9756
16.977
10.6759
12.6854
15.9474
21.1777
29.6646
43.0616
62.1461
86.2297
114.578
147.255
184.924
228.497
278.816
336.468
401.563
473.277
549.069
623.366
684.504
714.48
702.441
636.373
502.352
342.02
195.413
95.1313
45.9102
26.6626
20.0347
17.9107
17.2625
17.07
17.0116
16.9904
16.9847
16.985
16.9848
16.9826
16.9749
16.9707
16.9728
16.9719
16.967
16.9554
16.9501
16.9517
16.9501
16.9417
16.9385
16.94
10.6301
12.4942
15.4992
20.2859
27.9806
39.9921
57.0553
78.5156
103.369
131.205
162.252
196.926
235.621
278.464
325.036
373.945
422.235
464.653
492.277
495.401
471.594
405.139
306.225
199.495
110.557
56.5758
31.6247
21.958
18.5777
17.4699
17.1213
17.0132
16.9783
16.9646
16.9568
16.9561
16.9577
16.9558
16.9475
16.9424
16.9443
16.9426
16.9352
16.9238
16.9226
16.9252
16.9233
16.9142
16.9113
16.9126
10.5591
12.1997
14.7859
18.8013
25.0833
34.734
48.5347
66.271
87.0548
110.183
135.252
162.17
190.729
220.527
250.721
279.697
304.879
322.422
326.925
317.198
285.206
230.549
164.954
102.707
58.2774
34.0802
23.3551
19.1892
17.703
17.1999
17.0331
16.9783
16.9602
16.9525
16.946
16.9396
16.9352
16.9325
16.9271
16.9254
16.9274
16.9252
16.9164
16.909
16.9093
16.91
16.9075
16.8992
16.8955
16.8956
10.4652
11.815
13.8584
16.8798
21.3676
28.0021
37.4806
50.073
65.3908
82.7681
101.517
120.957
140.352
158.979
175.886
189.758
198.83
200.86
195.372
178.155
149.206
113.214
77.4992
49.3758
31.9739
23.1752
19.3394
17.8282
17.2707
17.0695
16.9958
16.971
16.965
16.9629
16.9582
16.9482
16.9394
16.9361
16.9345
16.9307
16.9287
16.9275
16.9232
16.9152
16.9115
16.913
16.9116
16.908
16.9025
16.8985
10.406
11.5506
13.1338
15.259
18.1246
22.0149
27.2811
34.2505
43.0292
53.3814
64.7571
76.3899
87.436
97.0523
104.415
108.718
109.289
106.069
96.9021
82.85
66.124
49.5299
35.8975
26.6775
21.4564
18.901
17.7776
17.3161
17.1302
17.0538
17.0209
17.0098
17.009
17.0077
17.002
16.992
16.9845
16.9819
16.9827
16.9801
16.9731
16.9648
16.9649
16.9658
16.9643
16.9586
16.9533
16.9547
16.9521
16.947
10.6572
12.1588
13.7602
15.4054
17.1581
19.1288
21.4576
24.2921
27.7239
31.7861
36.3261
40.971
45.204
48.4982
50.4262
50.787
49.7834
46.5341
41.503
35.7221
30.0229
25.2127
21.7162
19.5221
18.3148
17.7125
17.4246
17.2877
17.2254
17.1901
17.1765
17.1674
17.1637
17.1648
17.1618
17.1554
17.1518
17.1454
17.1436
17.1452
17.1409
17.135
17.1368
17.1366
17.1342
17.1265
17.1208
17.1232
17.1209
17.1165
14.0475
18.8528
21.2536
22.3359
22.6311
22.5137
22.295
22.2483
22.4296
22.9382
23.602
24.3262
24.9908
25.4556
25.6072
25.389
24.7879
23.837
22.6842
21.51
20.4642
19.4014
18.7334
18.3574
18.1416
17.9845
17.8825
17.8189
17.782
17.769
17.7664
17.7603
17.7488
17.7432
17.7434
17.7434
17.7435
17.7385
17.7341
17.7345
17.7311
17.7298
17.7338
17.7323
17.7297
17.7293
17.7299
17.7303
17.7307
17.7314
148.903
119.711
90.3729
70.5982
56.8036
46.6481
37.2317
32.893
29.9653
27.862
26.454
25.593
25.1191
24.8777
24.7415
24.6246
24.4856
24.313
24.1146
23.9048
23.698
23.5
23.3102
23.1355
22.9819
22.8495
22.739
22.6538
22.5934
22.5533
22.527
22.5079
22.4919
22.4798
22.4721
22.4675
22.4661
22.4697
22.4757
22.4826
22.4908
22.4991
22.5071
22.514
22.5194
22.5246
22.5294
22.5333
22.5364
22.538
)
;

boundaryField
{
    AXIS
    {
        type            empty;
    }
    OUTLET
    {
        type            zeroGradient;
    }
    COFLOW
    {
        type            fixedValue;
        value           uniform 10;
    }
    PILOT
    {
        type            fixedValue;
        value           uniform 10;
    }
    FUEL
    {
        type            fixedValue;
        value           uniform 50;
    }
    WALL
    {
        type            compressible::epsilonWallFunction;
        Cmu             0.09;
        kappa           0.41;
        E               9.8;
        value           nonuniform List<scalar> 
50
(
148.903
119.711
90.3729
70.5982
56.8036
46.6481
37.2317
32.893
29.9653
27.862
26.454
25.593
25.1191
24.8777
24.7415
24.6246
24.4856
24.313
24.1146
23.9048
23.698
23.5
23.3102
23.1355
22.9819
22.8495
22.739
22.6538
22.5934
22.5533
22.527
22.5079
22.4919
22.4798
22.4721
22.4675
22.4661
22.4697
22.4757
22.4826
22.4908
22.4991
22.5071
22.514
22.5194
22.5246
22.5294
22.5333
22.5364
22.538
)
;
    }
    front
    {
        type            wedge;
    }
    back
    {
        type            wedge;
    }
}


// ************************************************************************* //
