/*--------------------------------*- C++ -*----------------------------------*\
| =========                 |                                                 |
| \\      /  F ield         | OpenFOAM: The Open Source CFD Toolbox           |
|  \\    /   O peration     | Version:  2.4.x                                 |
|   \\  /    A nd           | Web:      www.OpenFOAM.org                      |
|    \\/     M anipulation  |                                                 |
\*---------------------------------------------------------------------------*/
FoamFile
{
    version     2.0;
    format      ascii;
    class       volScalarField;
    location    "0.03";
    object      k;
}
// * * * * * * * * * * * * * * * * * * * * * * * * * * * * * * * * * * * * * //

dimensions      [0 2 -2 0 0 0 0];

internalField   nonuniform List<scalar> 
1250
(
5.55811
5.94941
5.90992
5.98452
6.20627
6.53141
6.83458
7.09829
7.22216
7.28956
7.30539
7.27964
7.22382
7.10396
6.98771
6.81225
6.69333
6.69164
6.79669
7.19116
8.62066
13.2337
17.0454
16.7004
13.7689
8.69787
4.54277
2.08484
1.05867
0.721539
0.622299
0.594054
0.585923
0.58352
0.582783
0.582503
0.582251
0.582188
0.58223
0.582229
0.582127
0.581969
0.581969
0.581984
0.582027
0.58199
0.581739
0.581436
0.581403
0.581416
5.61123
5.94596
5.96267
6.1149
6.41076
6.77963
7.12138
7.35255
7.46639
7.50853
7.50399
7.46713
7.38092
7.24893
7.10232
6.9269
6.77795
6.76617
6.86361
7.26675
8.71942
13.3309
17.0357
16.6603
13.7127
8.65824
4.52175
2.07615
1.05589
0.720682
0.622002
0.593909
0.58582
0.583428
0.582696
0.582419
0.582167
0.582103
0.582145
0.582144
0.582046
0.581891
0.581892
0.581906
0.581948
0.581909
0.581651
0.581362
0.581334
0.581348
5.614
5.92651
6.14584
6.53682
7.03247
7.47522
7.80583
7.97421
8.03886
8.02484
7.97368
7.86994
7.72902
7.55084
7.35876
7.15518
6.96694
6.91819
6.98935
7.42349
8.93472
13.5677
17.0172
16.5598
13.5642
8.55174
4.46381
2.05173
1.04803
0.718356
0.621263
0.593591
0.585615
0.583256
0.582535
0.582262
0.582012
0.581946
0.581986
0.581984
0.58189
0.581731
0.581732
0.581747
0.581786
0.581745
0.581481
0.581201
0.581175
0.581191
5.42692
6.03302
6.80274
7.69826
8.42587
8.84585
9.07387
9.08949
9.02316
8.8724
8.69906
8.49308
8.26144
8.00605
7.74593
7.4925
7.24882
7.15092
7.20175
7.67277
9.30829
13.9295
16.9912
16.402
13.3183
8.37517
4.36713
2.01123
1.035
0.714569
0.620105
0.593126
0.585336
0.58303
0.582328
0.582063
0.581814
0.581748
0.581785
0.581783
0.581693
0.581533
0.581532
0.581548
0.581584
0.581542
0.581272
0.581
0.580977
0.580992
5.58401
7.05222
9.09966
10.5433
11.106
11.1475
11.0237
10.7204
10.3466
9.98349
9.64127
9.28921
8.93534
8.57634
8.22916
7.91091
7.60288
7.45561
7.50146
8.02352
9.82169
14.3613
16.9287
16.1833
12.9699
8.13104
4.23413
1.95644
1.01732
0.709461
0.618555
0.592514
0.584977
0.582742
0.582065
0.58181
0.581565
0.581498
0.581532
0.581529
0.581447
0.581286
0.581285
0.5813
0.581333
0.581289
0.581013
0.580749
0.580728
0.580744
9.00963
12.8835
14.9806
14.9112
14.5939
13.9222
13.1945
12.4743
11.7914
11.1968
10.6593
10.1426
9.65216
9.18292
8.75172
8.36855
7.99853
7.81976
7.87659
8.47134
10.4837
14.8048
16.8024
15.8984
12.518
7.82652
4.06921
1.88906
0.995697
0.703227
0.616656
0.591761
0.584532
0.582385
0.581737
0.581494
0.581253
0.581187
0.581218
0.581214
0.581139
0.580981
0.580978
0.580992
0.581022
0.580976
0.580694
0.580438
0.580419
0.580436
7.13832
14.6986
17.1031
17.0599
16.6377
15.7154
14.7397
13.7941
12.928
12.1806
11.4989
10.8615
10.2759
9.7314
9.2364
8.80341
8.39629
8.22061
8.3039
8.99887
11.279
15.152
16.5886
15.52
11.9862
7.47114
3.87792
1.8116
0.971004
0.696092
0.614462
0.590874
0.583998
0.581951
0.581336
0.581104
0.580867
0.580804
0.580833
0.580828
0.58076
0.580607
0.5806
0.580614
0.580642
0.580594
0.580305
0.580057
0.58004
0.580056
3.14744
9.90343
14.3491
15.8697
16.0642
15.6554
14.9663
14.1495
13.3526
12.6261
11.9279
11.2694
10.662
10.0956
9.58603
9.14707
8.75179
8.61729
8.75365
9.59063
12.0995
15.3738
16.2709
15.031
11.3997
7.07642
3.66664
1.72701
0.944183
0.688308
0.612029
0.589862
0.583369
0.58143
0.580849
0.580628
0.580396
0.580336
0.580367
0.580358
0.580294
0.580151
0.58014
0.580156
0.580182
0.580131
0.579835
0.579593
0.579578
0.579594
2.21017
5.43599
9.25691
11.9919
13.4259
13.8869
13.8044
13.4584
12.933
12.3876
11.8045
11.2318
10.6896
10.1814
9.72431
9.33333
9.02041
8.9668
9.20138
10.2451
12.8023
15.4253
15.8537
14.4346
10.7691
6.65449
3.44231
1.63839
0.9162
0.680136
0.609418
0.588732
0.58264
0.580813
0.580266
0.580055
0.579828
0.579773
0.579807
0.579792
0.579729
0.579598
0.579583
0.579604
0.579628
0.579574
0.57927
0.579035
0.579021
0.579037
2.00621
2.73291
4.66751
7.29389
9.42272
10.7387
11.4067
11.663
11.6176
11.4359
11.1038
10.7382
10.357
9.97703
9.63365
9.34859
9.18539
9.2383
9.63558
10.9057
13.2982
15.2959
15.3441
13.7459
10.1053
6.21738
3.21324
1.54884
0.888012
0.671839
0.60669
0.587492
0.581801
0.580087
0.579573
0.579371
0.57915
0.579101
0.579138
0.579115
0.57905
0.578936
0.578917
0.578941
0.578966
0.578908
0.578599
0.578367
0.578354
0.578371
1.15706
1.52607
2.23705
3.65419
5.52174
7.18396
8.38455
9.17589
9.6112
9.81347
9.81025
9.74535
9.60668
9.44349
9.29821
9.20267
9.21569
9.4125
10.0189
11.4374
13.5286
14.9809
14.745
12.9493
9.41089
5.76449
2.97984
1.45851
0.85968
0.663398
0.603816
0.586111
0.580824
0.579223
0.57874
0.578547
0.578335
0.578291
0.57833
0.5783
0.578234
0.578136
0.57811
0.578135
0.578161
0.578103
0.577792
0.577561
0.577548
0.577564
1.04117
1.16774
1.37477
1.8171
2.72877
3.99679
5.26973
6.34181
7.1379
7.7068
8.0645
8.30942
8.46158
8.56782
8.67254
8.81804
9.05242
9.46581
10.2906
11.7467
13.4927
14.4331
13.9811
12.0168
8.64872
5.27246
2.72905
1.36278
0.829679
0.65434
0.600643
0.584528
0.579671
0.578191
0.57774
0.577556
0.577356
0.577317
0.577354
0.577321
0.57726
0.577173
0.577135
0.577158
0.577186
0.57713
0.576821
0.576587
0.576573
0.576589
1.0132
1.05565
1.11086
1.22794
1.49807
2.02741
2.85438
3.79504
4.67726
5.44589
6.07104
6.59511
7.03393
7.42532
7.80664
8.21946
8.7097
9.3756
10.3699
11.7634
13.1512
13.6352
12.9994
10.9214
7.78607
4.72117
2.45142
1.25811
0.796828
0.6443
0.597079
0.582736
0.578362
0.577019
0.576605
0.576432
0.576247
0.576208
0.576241
0.576209
0.57616
0.576077
0.57602
0.576037
0.576067
0.576017
0.575716
0.575475
0.575459
0.575475
1.00258
1.0131
1.02704
1.05948
1.14015
1.32258
1.67655
2.2522
2.92992
3.64502
4.34409
5.01327
5.64637
6.25862
6.87379
7.52278
8.24377
9.11228
10.2024
11.4525
12.4452
12.5706
11.7786
9.66744
6.8241
4.11119
2.14798
1.14544
0.761268
0.633306
0.593163
0.580788
0.576957
0.575771
0.575401
0.57524
0.575072
0.575027
0.57505
0.575028
0.574999
0.57491
0.574823
0.574835
0.574865
0.574824
0.574539
0.574287
0.574269
0.574285
0.998166
0.997341
0.999325
1.01021
1.04266
1.13061
1.32655
1.66218
2.11716
2.66607
3.27831
3.93015
4.60791
5.31126
6.04811
6.83341
7.68822
8.64502
9.70901
10.7306
11.3636
11.2512
10.3167
8.276
5.77844
3.45494
1.82779
1.0285
0.723995
0.621641
0.589004
0.578756
0.57552
0.574511
0.574194
0.574045
0.573897
0.57383
0.573832
0.573839
0.573828
0.573707
0.5736
0.573609
0.573641
0.573609
0.573347
0.573084
0.573061
0.573077
0.996595
0.992329
0.991569
0.9982
1.02273
1.09135
1.24251
1.49324
1.83785
2.2677
2.77187
3.34146
3.96989
4.65488
5.39655
6.19727
7.05927
7.97546
8.89496
9.65158
9.96709
9.69623
8.65781
6.80702
4.68602
2.77964
1.51103
0.913216
0.686902
0.609852
0.584784
0.576724
0.574111
0.573293
0.573032
0.572895
0.572768
0.572649
0.572634
0.572666
0.572638
0.572493
0.572395
0.572405
0.572439
0.572418
0.572182
0.571911
0.571885
0.571901
0.996398
0.991883
0.991512
0.998819
1.02433
1.09073
1.23006
1.45025
1.74646
2.11145
2.54001
3.03033
3.58173
4.19337
4.86377
5.58754
6.3509
7.12111
7.81918
8.29701
8.36327
7.97483
6.90844
5.32068
3.60006
2.12908
1.21894
0.80796
0.652553
0.598685
0.58073
0.574771
0.572767
0.572138
0.571934
0.571807
0.571695
0.571559
0.571482
0.571483
0.571442
0.571291
0.571231
0.571244
0.571278
0.571267
0.571058
0.570788
0.570761
0.570777
0.996649
0.992763
0.993279
1.00156
1.02827
1.09348
1.2234
1.425
1.69145
2.01372
2.38675
2.80891
3.27964
3.79744
4.35769
4.94901
5.54809
6.11179
6.56029
6.7764
6.68134
6.18886
5.19271
3.90778
2.59362
1.55753
0.975347
0.720368
0.623316
0.588861
0.577027
0.572915
0.571462
0.571004
0.570855
0.570737
0.570629
0.570489
0.570337
0.57024
0.570153
0.570074
0.570077
0.570088
0.570124
0.570113
0.56992
0.569668
0.569646
0.569661
0.99679
0.993029
0.993434
1.0012
1.02532
1.08221
1.19488
1.37095
1.60518
1.88662
2.20817
2.56491
2.95321
3.3682
3.80118
4.2366
4.64823
4.99509
5.21186
5.22897
5.0229
4.47568
3.63884
2.66166
1.74976
1.12162
0.795254
0.654993
0.600665
0.580791
0.57367
0.571017
0.570016
0.569704
0.569604
0.569498
0.569384
0.569242
0.569044
0.568873
0.568736
0.568721
0.568726
0.568733
0.56879
0.568765
0.56857
0.568357
0.56835
0.568361
0.996486
0.991625
0.990157
0.994406
1.0106
1.05068
1.1328
1.26831
1.45642
1.68806
1.95178
2.23907
2.54165
2.85075
3.15493
3.43717
3.67404
3.8337
3.87144
3.77729
3.48285
2.97742
2.33817
1.67771
1.15381
0.835381
0.678775
0.611278
0.584384
0.574116
0.570171
0.568534
0.567862
0.56766
0.567595
0.567507
0.567419
0.567286
0.567035
0.566798
0.566639
0.566629
0.566634
0.566639
0.566684
0.566651
0.566454
0.566325
0.566345
0.566321
0.995554
0.987963
0.982275
0.980224
0.984592
1.00214
1.04455
1.1247
1.24787
1.41111
1.6041
1.81406
2.02783
2.23392
2.42002
2.57148
2.67069
2.69573
2.64185
2.47186
2.17768
1.79495
1.39048
1.04381
0.807838
0.675941
0.612014
0.583764
0.571963
0.567087
0.564967
0.563943
0.56345
0.563339
0.563352
0.563309
0.563211
0.563043
0.562723
0.562467
0.56232
0.562262
0.562261
0.562266
0.56228
0.562243
0.562064
0.56198
0.562011
0.561973
0.993941
0.981837
0.969732
0.958364
0.949315
0.945752
0.951231
0.973405
1.02309
1.10174
1.20574
1.32531
1.44741
1.55897
1.64795
1.70363
1.71589
1.68482
1.58964
1.43357
1.23901
1.03498
0.85538
0.723268
0.640757
0.595598
0.573101
0.562515
0.557606
0.555242
0.554005
0.553299
0.552873
0.552765
0.55279
0.552749
0.552618
0.552407
0.552106
0.551972
0.551982
0.551957
0.551859
0.551669
0.551577
0.551519
0.551473
0.551494
0.551461
0.551352
0.991776
0.972799
0.950943
0.927133
0.902491
0.878595
0.857586
0.842832
0.838745
0.845261
0.866562
0.901487
0.94075
0.976036
0.999255
1.00478
0.993417
0.955803
0.894733
0.8208
0.743773
0.674193
0.619341
0.581366
0.557669
0.54393
0.53627
0.532033
0.529661
0.528292
0.52744
0.526848
0.526379
0.526184
0.526176
0.526106
0.525902
0.525725
0.525514
0.525452
0.525455
0.525463
0.525459
0.525314
0.525035
0.524934
0.524935
0.524936
0.524947
0.524897
0.98932
0.95549
0.910308
0.863678
0.816122
0.770668
0.728568
0.692157
0.662388
0.639716
0.625083
0.617999
0.616108
0.615932
0.614348
0.608912
0.597928
0.581745
0.562025
0.54115
0.521486
0.50468
0.491309
0.481327
0.474196
0.469242
0.465872
0.463634
0.462191
0.461266
0.460642
0.460129
0.459609
0.459318
0.459255
0.459153
0.459
0.45901
0.45892
0.45878
0.45878
0.458782
0.458813
0.458759
0.45854
0.458358
0.458353
0.458402
0.458356
0.458312
0.975701
0.843595
0.699422
0.593259
0.51321
0.450087
0.387242
0.356472
0.334962
0.319069
0.308199
0.301452
0.297705
0.295788
0.294706
0.293779
0.292672
0.291293
0.289702
0.288012
0.28634
0.284736
0.283195
0.281773
0.28052
0.279438
0.278534
0.277835
0.277339
0.277009
0.276793
0.276636
0.276505
0.276405
0.276342
0.276304
0.276293
0.276323
0.276372
0.276429
0.276496
0.276564
0.27663
0.276687
0.276731
0.276774
0.276813
0.276845
0.276871
0.276884
)
;

boundaryField
{
    AXIS
    {
        type            empty;
    }
    OUTLET
    {
        type            zeroGradient;
    }
    COFLOW
    {
        type            fixedValue;
        value           uniform 1;
    }
    PILOT
    {
        type            fixedValue;
        value           uniform 1;
    }
    FUEL
    {
        type            fixedValue;
        value           uniform 5;
    }
    WALL
    {
        type            compressible::kqRWallFunction;
        value           nonuniform List<scalar> 
50
(
0.975701
0.843595
0.699422
0.593259
0.51321
0.450087
0.387242
0.356472
0.334962
0.319069
0.308199
0.301452
0.297705
0.295788
0.294706
0.293779
0.292672
0.291293
0.289702
0.288012
0.28634
0.284736
0.283195
0.281773
0.28052
0.279438
0.278534
0.277835
0.277339
0.277009
0.276793
0.276636
0.276505
0.276405
0.276342
0.276304
0.276293
0.276323
0.276372
0.276429
0.276496
0.276564
0.27663
0.276687
0.276731
0.276774
0.276813
0.276845
0.276871
0.276884
)
;
    }
    front
    {
        type            wedge;
    }
    back
    {
        type            wedge;
    }
}


// ************************************************************************* //
