/*--------------------------------*- C++ -*----------------------------------*\
| =========                 |                                                 |
| \\      /  F ield         | OpenFOAM: The Open Source CFD Toolbox           |
|  \\    /   O peration     | Version:  2.4.x                                 |
|   \\  /    A nd           | Web:      www.OpenFOAM.org                      |
|    \\/     M anipulation  |                                                 |
\*---------------------------------------------------------------------------*/
FoamFile
{
    version     2.0;
    format      ascii;
    class       surfaceScalarField;
    location    "0.03";
    object      phi;
}
// * * * * * * * * * * * * * * * * * * * * * * * * * * * * * * * * * * * * * //

dimensions      [1 0 -1 0 0 0 0];

internalField   nonuniform List<scalar> 
2425
(
1.06663e-06
-1.5532e-08
1.03644e-06
3.04203e-08
9.7786e-07
5.87721e-08
9.11102e-07
6.69203e-08
8.45069e-07
6.61622e-08
7.82772e-07
6.24051e-08
7.28738e-07
5.41341e-08
6.79074e-07
4.97694e-08
6.32988e-07
4.61861e-08
5.88536e-07
4.45467e-08
5.48083e-07
4.05351e-08
5.12515e-07
3.56302e-08
4.79041e-07
3.35227e-08
4.48918e-07
3.01405e-08
4.20251e-07
2.86674e-08
3.93404e-07
2.67735e-08
3.66692e-07
2.67266e-08
3.39202e-07
2.78262e-08
3.06693e-07
3.18717e-08
2.67304e-07
3.68367e-08
2.23339e-07
4.17843e-08
1.86252e-07
3.68384e-08
1.63289e-07
3.04439e-08
1.49151e-07
2.28079e-08
1.44898e-07
1.99279e-08
1.51585e-07
1.70215e-08
1.69309e-07
1.55453e-08
1.87647e-07
1.17898e-08
1.95475e-07
1.03336e-08
1.93577e-07
8.4e-09
1.89723e-07
6.00122e-09
1.86015e-07
4.57401e-09
1.83155e-07
3.37022e-09
1.81057e-07
2.50734e-09
1.79598e-07
1.83793e-09
1.78619e-07
1.34328e-09
1.77977e-07
9.93864e-10
1.77566e-07
7.50482e-10
1.77311e-07
5.80967e-10
1.77158e-07
4.63329e-10
1.77059e-07
3.90778e-10
1.76983e-07
3.48609e-10
1.76917e-07
3.14751e-10
1.76861e-07
2.8126e-10
1.76805e-07
2.53956e-10
1.76736e-07
2.3725e-10
1.76654e-07
2.16826e-10
1.7659e-07
1.65102e-10
1.76573e-07
7.94341e-11
1.70156e-11
3.21299e-06
-7.53175e-08
3.07572e-06
1.68372e-07
2.87887e-06
2.56196e-07
2.67403e-06
2.72242e-07
2.47615e-06
2.64423e-07
2.29727e-06
2.41611e-07
2.13828e-06
2.13427e-07
1.99153e-06
1.96839e-07
1.8504e-06
1.87613e-07
1.72232e-06
1.72912e-07
1.60709e-06
1.5601e-07
1.50303e-06
1.39886e-07
1.40819e-06
1.28519e-07
1.32085e-06
1.17551e-07
1.23909e-06
1.10451e-07
1.16e-06
1.05676e-07
1.08361e-06
1.03217e-07
1.00414e-06
1.08194e-07
9.10266e-07
1.23926e-07
7.95401e-07
1.44165e-07
6.68136e-07
1.62429e-07
5.60761e-07
1.43397e-07
4.94311e-07
1.19439e-07
4.52148e-07
9.10258e-08
4.39937e-07
7.96839e-08
4.59614e-07
6.85382e-08
5.12669e-07
6.22372e-08
5.66812e-07
4.78224e-08
5.89485e-07
4.19218e-08
5.8363e-07
3.36659e-08
5.7189e-07
2.41562e-08
5.60786e-07
1.82716e-08
5.52215e-07
1.34688e-08
5.45962e-07
9.9896e-09
5.41629e-07
7.30769e-09
5.38741e-07
5.32317e-09
5.36871e-07
3.92009e-09
5.35697e-07
2.94359e-09
5.34991e-07
2.26385e-09
5.3459e-07
1.79465e-09
5.34354e-07
1.50259e-09
5.34189e-07
1.33e-09
5.34054e-07
1.19822e-09
5.33941e-07
1.06943e-09
5.3382e-07
9.67919e-10
5.33651e-07
9.11169e-10
5.33438e-07
8.36152e-10
5.33264e-07
6.40064e-10
5.33211e-07
3.19532e-10
7.52226e-11
5.26087e-06
-8.019e-08
4.92009e-06
5.10223e-07
4.54735e-06
6.29865e-07
4.20418e-06
6.16176e-07
3.89826e-06
5.70967e-07
3.62382e-06
5.16601e-07
3.36221e-06
4.75498e-07
3.1205e-06
4.39036e-07
2.90491e-06
4.03698e-07
2.7116e-06
3.66675e-07
2.53816e-06
3.29864e-07
2.38153e-06
2.96837e-07
2.23882e-06
2.71483e-07
2.10686e-06
2.4968e-07
1.98201e-06
2.35446e-07
1.86075e-06
2.26721e-07
1.7423e-06
2.22062e-07
1.61896e-06
2.32821e-07
1.47112e-06
2.68973e-07
1.29175e-06
3.11605e-07
1.09363e-06
3.50328e-07
9.27118e-07
3.12059e-07
8.23387e-07
2.61118e-07
7.56007e-07
2.02368e-07
7.37875e-07
1.79235e-07
7.71047e-07
1.54374e-07
8.58344e-07
1.40925e-07
9.48759e-07
1.06756e-07
9.84889e-07
9.5177e-08
9.74665e-07
7.57928e-08
9.55103e-07
5.42862e-08
9.36715e-07
4.09498e-08
9.22533e-07
3.01878e-08
9.12207e-07
2.23643e-08
9.0506e-07
1.63481e-08
9.00309e-07
1.18937e-08
8.97249e-07
8.74123e-09
8.95344e-07
6.54636e-09
8.94217e-07
5.0192e-09
8.93596e-07
3.9653e-09
8.93253e-07
3.30631e-09
8.93025e-07
2.91796e-09
8.92847e-07
2.62492e-09
8.92702e-07
2.33932e-09
8.92543e-07
2.11611e-09
8.92295e-07
1.99903e-09
8.91971e-07
1.83766e-09
8.91714e-07
1.39854e-09
8.91641e-07
7.04562e-10
1.75672e-10
6.93816e-06
3.42644e-07
6.24179e-06
1.20792e-06
5.70983e-06
1.16297e-06
5.28502e-06
1.04201e-06
4.89242e-06
9.64365e-07
4.53211e-06
8.77624e-07
4.21675e-06
7.91503e-07
3.93909e-06
7.17371e-07
3.69044e-06
6.5302e-07
3.46687e-06
5.90878e-07
3.26588e-06
5.31431e-07
3.08256e-06
4.80583e-07
2.91311e-06
4.41328e-07
2.75502e-06
4.08126e-07
2.60458e-06
3.86235e-07
2.45649e-06
3.74754e-07
2.30932e-06
3.70235e-07
2.15199e-06
3.91779e-07
1.96193e-06
4.5614e-07
1.73499e-06
5.26204e-07
1.48432e-06
5.88858e-07
1.27443e-06
5.30583e-07
1.14158e-06
4.45581e-07
1.05488e-06
3.56088e-07
1.03433e-06
3.14555e-07
1.08287e-06
2.73191e-07
1.20299e-06
2.52493e-07
1.33225e-06
2.19359e-07
1.37937e-06
1.70506e-07
1.36487e-06
1.33876e-07
1.33775e-06
9.58989e-08
1.3124e-06
7.22352e-08
1.29285e-06
5.32735e-08
1.27862e-06
3.94525e-08
1.26878e-06
2.8842e-08
1.26224e-06
2.098e-08
1.25803e-06
1.54104e-08
1.25543e-06
1.15288e-08
1.2539e-06
8.82701e-09
1.25307e-06
6.96091e-09
1.25263e-06
5.79099e-09
1.25235e-06
5.10215e-09
1.25214e-06
4.58535e-09
1.25197e-06
4.08056e-09
1.25179e-06
3.68517e-09
1.25148e-06
3.48282e-09
1.25106e-06
3.20737e-09
1.25071e-06
2.44972e-09
1.25061e-06
1.2483e-09
3.1868e-10
7.10602e-06
2.70244e-06
6.30226e-06
2.01301e-06
5.89518e-06
1.57124e-06
5.50737e-06
1.43101e-06
5.17945e-06
1.29335e-06
4.88924e-06
1.16878e-06
4.6223e-06
1.05929e-06
4.37685e-06
9.63687e-07
4.14879e-06
8.8193e-07
3.93904e-06
8.01434e-07
3.74683e-06
7.24368e-07
3.56673e-06
6.61302e-07
3.3979e-06
6.10752e-07
3.23737e-06
5.69322e-07
3.07991e-06
5.44359e-07
2.92149e-06
5.3353e-07
2.76089e-06
5.32783e-07
2.58322e-06
5.71438e-07
2.36531e-06
6.71638e-07
2.10991e-06
7.74807e-07
1.83052e-06
8.58008e-07
1.59617e-06
7.90505e-07
1.44326e-06
6.6124e-07
1.34457e-06
5.44401e-07
1.3259e-06
4.8178e-07
1.39389e-06
4.27344e-07
1.5486e-06
3.942e-07
1.71524e-06
3.5785e-07
1.77255e-06
2.6576e-07
1.75394e-06
2.06609e-07
1.71967e-06
1.48284e-07
1.68783e-06
1.11562e-07
1.66328e-06
8.23353e-08
1.64543e-06
6.09759e-08
1.63307e-06
4.46021e-08
1.62487e-06
3.2458e-08
1.6196e-06
2.38453e-08
1.61635e-06
1.78349e-08
1.61447e-06
1.36479e-08
1.61346e-06
1.07516e-08
1.61295e-06
8.93006e-09
1.61265e-06
7.85795e-09
1.61242e-06
7.05651e-09
1.61226e-06
6.2709e-09
1.61207e-06
5.65031e-09
1.61173e-06
5.33435e-09
1.61124e-06
4.9211e-09
1.61081e-06
3.78343e-09
1.61067e-06
1.94991e-09
5.03739e-10
3.30883e-06
-2.02934e-09
4.34876e-06
9.74059e-07
4.70415e-06
1.217e-06
4.77471e-06
1.36184e-06
4.73983e-06
1.32952e-06
4.64688e-06
1.26289e-06
4.52089e-06
1.18632e-06
4.38182e-06
1.10379e-06
4.24168e-06
1.02308e-06
4.10452e-06
9.39595e-07
3.96863e-06
8.61168e-07
3.83097e-06
7.99775e-07
3.68949e-06
7.5302e-07
3.54412e-06
7.15716e-07
3.39735e-06
6.92262e-07
3.24596e-06
6.86023e-07
3.0874e-06
6.94534e-07
2.90394e-06
7.57337e-07
2.67882e-06
8.94752e-07
2.40939e-06
1.04495e-06
2.12166e-06
1.12348e-06
1.8875e-06
1.05288e-06
1.72407e-06
9.04109e-07
1.62188e-06
7.62013e-07
1.61051e-06
6.71841e-07
1.70308e-06
6.07605e-07
1.89445e-06
5.62406e-07
2.09694e-06
5.19067e-07
2.164e-06
3.77735e-07
2.14152e-06
2.92413e-07
2.1007e-06
2.10457e-07
2.06303e-06
1.58186e-07
2.03397e-06
1.16855e-07
2.01286e-06
8.65646e-08
1.99825e-06
6.33762e-08
1.98855e-06
4.61579e-08
1.98233e-06
3.39311e-08
1.97852e-06
2.5385e-08
1.97633e-06
1.94237e-08
1.9752e-06
1.52918e-08
1.97466e-06
1.2684e-08
1.97436e-06
1.11485e-08
1.97416e-06
1.00036e-08
1.97403e-06
8.8767e-09
1.97388e-06
7.9759e-09
1.97354e-06
7.51452e-09
1.97301e-06
6.94589e-09
1.97252e-06
5.37739e-09
1.97236e-06
2.79841e-09
7.29516e-10
1.51835e-06
-8.0634e-07
2.62039e-06
-1.26919e-07
3.3439e-06
4.94778e-07
3.77269e-06
9.34575e-07
4.00239e-06
1.10122e-06
4.10796e-06
1.15859e-06
4.14024e-06
1.15521e-06
4.1247e-06
1.12049e-06
4.08238e-06
1.06653e-06
4.02397e-06
9.99198e-07
3.95137e-06
9.34886e-07
3.86823e-06
8.83979e-07
3.77774e-06
8.44686e-07
3.67898e-06
8.15851e-07
3.56583e-06
8.07094e-07
3.43683e-06
8.17332e-07
3.29312e-06
8.42736e-07
3.11866e-06
9.34867e-07
2.90325e-06
1.11153e-06
2.63701e-06
1.31842e-06
2.36068e-06
1.39852e-06
2.14323e-06
1.31516e-06
1.98179e-06
1.15685e-06
1.88502e-06
1.00311e-06
1.88732e-06
8.84087e-07
2.01016e-06
8.14032e-07
2.24044e-06
7.52688e-07
2.47698e-06
6.99076e-07
2.55318e-06
5.07053e-07
2.52716e-06
3.89449e-07
2.48065e-06
2.81165e-07
2.43794e-06
2.11217e-07
2.40496e-06
1.56218e-07
2.38102e-06
1.1578e-07
2.36444e-06
8.48641e-08
2.35345e-06
6.18769e-08
2.34642e-06
4.5531e-08
2.34214e-06
3.40837e-08
2.33972e-06
2.60848e-08
2.33851e-06
2.05269e-08
2.33799e-06
1.70054e-08
2.33774e-06
1.49293e-08
2.33761e-06
1.33843e-08
2.33755e-06
1.18573e-08
2.33748e-06
1.06203e-08
2.3372e-06
9.97811e-09
2.33667e-06
9.24164e-09
2.33615e-06
7.20243e-09
2.33598e-06
3.77999e-09
9.95122e-10
9.39574e-07
-9.22005e-07
1.59573e-06
-7.818e-07
2.3047e-06
-2.12896e-07
2.85887e-06
3.81794e-07
3.23744e-06
7.23994e-07
3.47942e-06
9.17848e-07
3.63334e-06
1.00246e-06
3.72406e-06
1.031e-06
3.77417e-06
1.01774e-06
3.79516e-06
9.79598e-07
3.79023e-06
9.41246e-07
3.76672e-06
9.08969e-07
3.72884e-06
8.8436e-07
3.67544e-06
8.7137e-07
3.606e-06
8.7912e-07
3.51771e-06
9.09076e-07
3.40201e-06
9.66709e-07
3.24709e-06
1.09716e-06
3.05048e-06
1.31632e-06
2.8039e-06
1.56167e-06
2.55843e-06
1.66389e-06
2.36645e-06
1.57198e-06
2.2156e-06
1.40983e-06
2.13343e-06
1.2577e-06
2.15669e-06
1.11842e-06
2.31585e-06
1.0475e-06
2.58811e-06
9.59297e-07
2.85674e-06
8.93326e-07
2.93949e-06
6.47736e-07
2.91054e-06
4.95606e-07
2.85934e-06
3.58991e-07
2.81246e-06
2.69666e-07
2.77623e-06
1.99732e-07
2.74994e-06
1.48129e-07
2.73174e-06
1.08728e-07
2.71969e-06
7.93871e-08
2.71201e-06
5.84911e-08
2.70736e-06
4.38246e-08
2.70478e-06
3.35533e-08
2.70356e-06
2.63958e-08
2.7031e-06
2.18413e-08
2.70296e-06
1.91506e-08
2.70294e-06
1.71507e-08
2.70301e-06
1.51671e-08
2.70306e-06
1.35385e-08
2.70288e-06
1.26771e-08
2.70239e-06
1.17622e-08
2.70187e-06
9.22668e-09
2.70171e-06
4.88368e-09
1.30136e-09
7.99583e-07
-7.87921e-07
1.05871e-06
-1.03987e-06
1.61236e-06
-7.65735e-07
2.15526e-06
-1.60306e-07
2.57998e-06
3.00184e-07
2.89646e-06
6.02343e-07
3.12565e-06
7.74324e-07
3.29203e-06
8.65883e-07
3.41312e-06
8.98133e-07
3.49839e-06
8.96029e-07
3.55285e-06
8.88703e-07
3.58329e-06
8.80661e-07
3.59348e-06
8.76713e-07
3.58438e-06
8.83632e-07
3.55424e-06
9.13116e-07
3.50301e-06
9.66006e-07
3.42343e-06
1.0564e-06
3.29556e-06
1.2362e-06
3.1087e-06
1.50136e-06
2.90805e-06
1.78188e-06
2.72748e-06
1.90454e-06
2.5579e-06
1.82315e-06
2.42299e-06
1.65046e-06
2.36811e-06
1.52138e-06
2.42003e-06
1.37133e-06
2.62015e-06
1.29518e-06
2.93908e-06
1.17418e-06
3.23732e-06
1.09733e-06
3.32287e-06
7.99145e-07
3.29157e-06
6.08849e-07
3.23671e-06
4.42513e-07
3.18662e-06
3.32476e-07
3.14785e-06
2.46652e-07
3.11975e-06
1.83081e-07
3.10028e-06
1.34604e-07
3.08741e-06
9.84416e-08
3.07924e-06
7.26449e-08
3.07434e-06
5.44921e-08
3.07169e-06
4.17448e-08
3.07052e-06
3.28322e-08
3.0702e-06
2.71344e-08
3.07022e-06
2.37576e-08
3.07036e-06
2.12501e-08
3.0706e-06
1.87557e-08
3.07082e-06
1.66803e-08
3.07079e-06
1.5561e-08
3.0704e-06
1.44606e-08
3.06992e-06
1.14168e-08
3.06976e-06
6.10039e-09
1.65044e-09
9.59423e-07
-7.04245e-07
9.88523e-07
-1.06894e-06
1.29173e-06
-1.07007e-06
1.70064e-06
-5.69697e-07
2.09109e-06
-9.03418e-08
2.41704e-06
2.76676e-07
2.68011e-06
5.12001e-07
2.88495e-06
6.62275e-07
3.04204e-06
7.4285e-07
3.16179e-06
7.78666e-07
3.25346e-06
7.99909e-07
3.32131e-06
8.16156e-07
3.36771e-06
8.34239e-07
3.39366e-06
8.62628e-07
3.39734e-06
9.15297e-07
3.37853e-06
9.93581e-07
3.33165e-06
1.11753e-06
3.24387e-06
1.34134e-06
3.12371e-06
1.64624e-06
2.99086e-06
1.94878e-06
2.85723e-06
2.08909e-06
2.72039e-06
2.05906e-06
2.61377e-06
1.90472e-06
2.59115e-06
1.78546e-06
2.67716e-06
1.63146e-06
2.92277e-06
1.55265e-06
3.29175e-06
1.43513e-06
3.61374e-06
1.30981e-06
3.70289e-06
9.56311e-07
3.67033e-06
7.26819e-07
3.61298e-06
5.30217e-07
3.56069e-06
3.98543e-07
3.52015e-06
2.96199e-07
3.49078e-06
2.20078e-07
3.47044e-06
1.62105e-07
3.45701e-06
1.18776e-07
3.44853e-06
8.78099e-08
3.44352e-06
6.5956e-08
3.4409e-06
5.05621e-08
3.43986e-06
3.97595e-08
3.43973e-06
3.28177e-08
3.43997e-06
2.86859e-08
3.44034e-06
2.56197e-08
3.44081e-06
2.25639e-08
3.44127e-06
1.99835e-08
3.44145e-06
1.85728e-08
3.44119e-06
1.72944e-08
3.44078e-06
1.37374e-08
3.44065e-06
7.41717e-09
2.045e-09
1.8266e-06
-1.61604e-07
1.54958e-06
-7.92825e-07
1.44349e-06
-9.68438e-07
1.60028e-06
-7.30727e-07
1.88732e-06
-3.80301e-07
2.1845e-06
-2.20912e-08
2.45494e-06
2.41499e-07
2.6908e-06
4.27638e-07
2.88959e-06
5.46317e-07
3.0467e-06
6.24908e-07
3.17077e-06
6.80419e-07
3.27165e-06
7.20706e-07
3.35147e-06
7.6094e-07
3.41012e-06
8.1192e-07
3.44788e-06
8.87773e-07
3.46287e-06
9.93774e-07
3.44664e-06
1.15348e-06
3.39638e-06
1.41922e-06
3.33055e-06
1.75109e-06
3.24207e-06
2.08283e-06
3.13633e-06
2.27304e-06
3.03159e-06
2.28373e-06
2.95751e-06
2.16629e-06
2.97079e-06
2.06556e-06
3.10497e-06
1.91864e-06
3.42114e-06
1.8451e-06
3.86387e-06
1.71247e-06
4.2275e-06
1.53832e-06
4.32515e-06
1.12529e-06
4.2906e-06
8.54263e-07
4.2286e-06
6.25835e-07
4.17209e-06
4.70697e-07
4.12816e-06
3.50559e-07
4.09636e-06
2.60777e-07
4.07435e-06
1.92494e-07
4.05987e-06
1.41349e-07
4.0508e-06
1.04717e-07
4.04554e-06
7.87754e-08
4.04292e-06
6.04351e-08
4.04207e-06
4.75119e-08
4.04224e-06
3.91573e-08
4.04283e-06
3.41558e-08
4.04356e-06
3.04461e-08
4.04439e-06
2.67475e-08
4.0452e-06
2.35807e-08
4.04568e-06
2.18344e-08
4.04562e-06
2.03736e-08
4.04531e-06
1.62746e-08
4.04522e-06
8.89715e-09
2.51346e-09
2.76023e-06
1.97809e-08
2.43256e-06
-4.6761e-07
2.08623e-06
-6.33534e-07
1.95073e-06
-6.09967e-07
2.02539e-06
-4.68673e-07
2.22155e-06
-2.26855e-07
2.46187e-06
-1.21317e-09
2.70462e-06
1.85047e-07
2.9291e-06
3.24661e-07
3.1318e-06
4.27286e-07
3.31055e-06
5.08142e-07
3.46419e-06
5.74992e-07
3.59369e-06
6.41015e-07
3.69839e-06
7.18816e-07
3.77801e-06
8.23171e-07
3.82607e-06
9.66837e-07
3.83462e-06
1.17277e-06
3.80862e-06
1.48271e-06
3.75527e-06
1.8544e-06
3.69642e-06
2.20923e-06
3.63337e-06
2.44756e-06
3.56653e-06
2.50818e-06
3.53774e-06
2.44528e-06
3.60204e-06
2.36087e-06
3.8169e-06
2.24663e-06
4.24482e-06
2.17301e-06
4.80446e-06
2.01772e-06
5.23692e-06
1.79192e-06
5.34953e-06
1.31432e-06
5.31215e-06
9.97544e-07
5.24264e-06
7.34502e-07
5.17924e-06
5.52853e-07
5.12977e-06
4.12796e-07
5.09403e-06
3.07532e-07
5.06932e-06
2.27597e-07
5.05314e-06
1.67569e-07
5.04313e-06
1.24453e-07
5.03751e-06
9.37895e-08
5.03493e-06
7.20135e-08
5.03442e-06
5.65956e-08
5.0351e-06
4.65541e-08
5.03628e-06
4.04951e-08
5.03763e-06
3.60011e-08
5.03907e-06
3.15289e-08
5.04046e-06
2.7651e-08
5.04144e-06
2.55035e-08
5.04171e-06
2.38518e-08
5.0416e-06
1.91587e-08
5.04158e-06
1.06396e-08
3.10298e-09
3.59025e-06
8.53001e-08
3.33052e-06
-2.1111e-07
3.01613e-06
-3.38297e-07
2.74362e-06
-3.71868e-07
2.58422e-06
-3.5235e-07
2.57433e-06
-2.5284e-07
2.68157e-06
-1.29125e-07
2.86126e-06
-3.09472e-09
3.07269e-06
1.12599e-07
3.28862e-06
2.15931e-07
3.49208e-06
3.12383e-07
3.67723e-06
4.00119e-07
3.83998e-06
4.91109e-07
3.97831e-06
5.96611e-07
4.09002e-06
7.32729e-07
4.16977e-06
9.16045e-07
4.21303e-06
1.16979e-06
4.22421e-06
1.5225e-06
4.20986e-06
1.93216e-06
4.20389e-06
2.32179e-06
4.1912e-06
2.61964e-06
4.18206e-06
2.73483e-06
4.22324e-06
2.7347e-06
4.36905e-06
2.6856e-06
4.70193e-06
2.60876e-06
5.27836e-06
2.53251e-06
5.98275e-06
2.33851e-06
6.49113e-06
2.06233e-06
6.61974e-06
1.51961e-06
6.58121e-06
1.15463e-06
6.50556e-06
8.55215e-07
6.43643e-06
6.44342e-07
6.38227e-06
4.82587e-07
6.34322e-06
3.60211e-07
6.31629e-06
2.67431e-07
6.29879e-06
1.97543e-07
6.28817e-06
1.47163e-07
6.28249e-06
1.11143e-07
6.28027e-06
8.54248e-08
6.2804e-06
6.71134e-08
6.28192e-06
5.50783e-08
6.28402e-06
4.77375e-08
6.28632e-06
4.22878e-08
6.28869e-06
3.68904e-08
6.29098e-06
3.21597e-08
6.29273e-06
2.95288e-08
6.29355e-06
2.76868e-08
6.29378e-06
2.23827e-08
6.29388e-06
1.26792e-08
3.84536e-09
4.5468e-06
8.83473e-08
4.38453e-06
-5.10839e-08
4.14084e-06
-1.19143e-07
3.87058e-06
-1.55397e-07
3.60101e-06
-1.67794e-07
3.40508e-06
-1.54964e-07
3.33043e-06
-1.3409e-07
3.37424e-06
-9.54393e-08
3.49602e-06
-3.56546e-08
3.66151e-06
3.9611e-08
3.84527e-06
1.26806e-07
4.02996e-06
2.20494e-07
4.20338e-06
3.28621e-07
4.35733e-06
4.59759e-07
4.48685e-06
6.28235e-07
4.58775e-06
8.51686e-07
4.65897e-06
1.1518e-06
4.70503e-06
1.54737e-06
4.73353e-06
1.99152e-06
4.78532e-06
2.42086e-06
4.83512e-06
2.76934e-06
4.91119e-06
2.96974e-06
5.04871e-06
3.0541e-06
5.31537e-06
3.05584e-06
5.81294e-06
3.01536e-06
6.58368e-06
2.95453e-06
7.45809e-06
2.65319e-06
8.05208e-06
2.34288e-06
8.1925e-06
1.73762e-06
8.15623e-06
1.32024e-06
8.07727e-06
9.85133e-07
8.00493e-06
7.43127e-07
7.94799e-06
5.58625e-07
7.90706e-06
4.1801e-07
7.87898e-06
3.11551e-07
7.86097e-06
2.31071e-07
7.8504e-06
1.72785e-07
7.84522e-06
1.30844e-07
7.84388e-06
1.00701e-07
7.84515e-06
7.91024e-08
7.84797e-06
6.47485e-08
7.85148e-06
5.58654e-08
7.8552e-06
4.92519e-08
7.85895e-06
4.27589e-08
7.86255e-06
3.70216e-08
7.86546e-06
3.38097e-08
7.86715e-06
3.17902e-08
7.86793e-06
2.59039e-08
7.86824e-06
1.50398e-08
4.77602e-09
5.68355e-06
7.42559e-08
5.59469e-06
3.84556e-08
5.42626e-06
2.55479e-08
5.20318e-06
7.42343e-09
4.93249e-06
-1.7802e-08
4.65833e-06
-4.60492e-08
4.4478e-06
-9.31664e-08
4.34445e-06
-1.27708e-07
4.34317e-06
-1.30391e-07
4.41633e-06
-9.74259e-08
4.53614e-06
-3.32221e-08
4.67563e-06
5.83412e-08
4.81453e-06
1.78196e-07
4.94369e-06
3.32417e-07
5.05698e-06
5.321e-07
5.15246e-06
7.95026e-07
5.23141e-06
1.13773e-06
5.29986e-06
1.57324e-06
5.36184e-06
2.05019e-06
5.47289e-06
2.5211e-06
5.60591e-06
2.92779e-06
5.78515e-06
3.21601e-06
6.05222e-06
3.37876e-06
6.50347e-06
3.4518e-06
7.22948e-06
3.46215e-06
8.24175e-06
3.38506e-06
9.34338e-06
3.12457e-06
9.99579e-06
2.60693e-06
1.01405e-05
1.96238e-06
1.01098e-05
1.48749e-06
1.00325e-05
1.1188e-06
9.96125e-06
8.45362e-07
9.90496e-06
6.3821e-07
9.86471e-06
4.79149e-07
9.8374e-06
3.58808e-07
9.82035e-06
2.67451e-07
9.81098e-06
2.00899e-07
9.80729e-06
1.52639e-07
9.80766e-06
1.17688e-07
9.81082e-06
9.24643e-08
9.81566e-06
7.54786e-08
9.82126e-06
6.47647e-08
9.82708e-06
5.67411e-08
9.83286e-06
4.89705e-08
9.83835e-06
4.20767e-08
9.84293e-06
3.81799e-08
9.84595e-06
3.60015e-08
9.84759e-06
2.961e-08
9.84824e-06
1.77175e-08
5.93148e-09
7.08838e-06
5.7559e-08
7.05355e-06
7.86057e-08
6.95385e-06
1.05383e-07
6.77895e-06
1.1159e-07
6.53657e-06
8.79613e-08
6.2434e-06
2.03145e-08
5.96555e-06
-6.97212e-08
5.75535e-06
-1.56409e-07
5.63402e-06
-2.02082e-07
5.58904e-06
-1.98345e-07
5.59936e-06
-1.52481e-07
5.64592e-06
-6.29294e-08
5.71288e-06
6.61826e-08
5.78584e-06
2.39154e-07
5.8582e-06
4.69212e-07
5.92509e-06
7.69779e-07
5.98828e-06
1.14973e-06
6.06699e-06
1.62388e-06
6.16227e-06
2.13094e-06
6.33832e-06
2.64521e-06
6.55769e-06
3.10529e-06
6.86935e-06
3.47773e-06
7.33162e-06
3.73555e-06
8.04403e-06
3.88597e-06
9.07696e-06
3.93731e-06
1.04319e-05
3.84815e-06
1.17157e-05
3.54037e-06
1.23925e-05
2.83563e-06
1.25479e-05
2.1684e-06
1.25304e-05
1.64326e-06
1.24635e-05
1.24661e-06
1.24003e-05
9.44642e-07
1.23501e-05
7.16772e-07
1.23146e-05
5.40524e-07
1.22911e-05
4.07061e-07
1.22774e-05
3.05259e-07
1.22712e-05
2.30537e-07
1.22705e-05
1.75865e-07
1.2274e-05
1.35926e-07
1.22801e-05
1.06877e-07
1.2288e-05
8.70146e-08
1.22967e-05
7.41796e-08
1.23056e-05
6.44682e-08
1.23143e-05
5.52404e-08
1.23224e-05
4.70741e-08
1.23294e-05
4.23786e-08
1.23344e-05
4.00371e-08
1.23374e-05
3.33027e-08
1.23385e-05
2.06839e-08
7.34101e-09
8.84371e-06
4.25785e-08
8.84598e-06
8.70737e-08
8.80299e-06
1.34212e-07
8.6884e-06
1.57412e-07
8.48504e-06
1.32963e-07
8.20808e-06
4.92673e-08
7.88398e-06
-7.94036e-08
7.58905e-06
-1.88899e-07
7.35601e-06
-2.57508e-07
7.18757e-06
-2.67902e-07
7.07594e-06
-2.23973e-07
7.00525e-06
-1.29802e-07
6.96352e-06
1.27482e-08
6.9426e-06
2.09395e-07
6.93734e-06
4.69657e-07
6.94942e-06
8.04577e-07
6.98795e-06
1.21829e-06
7.06754e-06
1.72252e-06
7.19384e-06
2.25867e-06
7.44223e-06
2.81289e-06
7.7967e-06
3.33186e-06
8.31262e-06
3.78188e-06
9.04559e-06
4.12663e-06
1.01137e-05
4.32988e-06
1.15701e-05
4.38729e-06
1.32596e-05
4.18156e-06
1.46949e-05
3.82715e-06
1.53523e-05
3.00623e-06
1.55265e-05
2.32647e-06
1.55309e-05
1.77292e-06
1.54863e-05
1.35568e-06
1.54404e-05
1.03224e-06
1.54038e-05
7.87847e-07
1.53789e-05
5.97523e-07
1.5364e-05
4.52906e-07
1.53572e-05
3.42091e-07
1.5357e-05
2.59964e-07
1.53618e-05
1.99267e-07
1.53702e-05
1.54501e-07
1.53812e-05
1.21683e-07
1.53936e-05
9.88548e-08
1.54067e-05
8.366e-08
1.54199e-05
7.19789e-08
1.54327e-05
6.11411e-08
1.54445e-05
5.16644e-08
1.54548e-05
4.60562e-08
1.54626e-05
4.34849e-08
1.54675e-05
3.66827e-08
1.54695e-05
2.38546e-08
9.00738e-09
1.10438e-05
2.98151e-08
1.10751e-05
7.48877e-08
1.10824e-05
1.2418e-07
1.10358e-05
1.4988e-07
1.08864e-05
1.27669e-07
1.0601e-05
3.32627e-08
1.02517e-05
-9.67103e-08
9.8815e-06
-2.23355e-07
9.54993e-06
-2.88674e-07
9.26541e-06
-2.93753e-07
9.0248e-06
-2.36173e-07
8.82469e-06
-1.23038e-07
8.66214e-06
4.26013e-08
8.53203e-06
2.68648e-07
8.43574e-06
5.60526e-07
8.38453e-06
9.28354e-07
8.39185e-06
1.37295e-06
8.47566e-06
1.90591e-06
8.65558e-06
2.46694e-06
9.02159e-06
3.06575e-06
9.56235e-06
3.63491e-06
1.03531e-05
4.16051e-06
1.14558e-05
4.56867e-06
1.29905e-05
4.79563e-06
1.4942e-05
4.79502e-06
1.70199e-05
4.59867e-06
1.84264e-05
3.93718e-06
1.90176e-05
3.10735e-06
1.92118e-05
2.41781e-06
1.92524e-05
1.85704e-06
1.92449e-05
1.4307e-06
1.92289e-05
1.09654e-06
1.92161e-05
8.4267e-07
1.92097e-05
6.43718e-07
1.92096e-05
4.9159e-07
1.9215e-05
3.74273e-07
1.9225e-05
2.86406e-07
1.92388e-05
2.20742e-07
1.92552e-05
1.71848e-07
1.92733e-05
1.3573e-07
1.92924e-05
1.10134e-07
1.93117e-05
9.24912e-08
1.9331e-05
7.86188e-08
1.93494e-05
6.6091e-08
1.93662e-05
5.54007e-08
1.93808e-05
4.88359e-08
1.93925e-05
4.59028e-08
1.94003e-05
3.93107e-08
1.94037e-05
2.6939e-08
1.08186e-08
1.38054e-05
1.64834e-08
1.38587e-05
4.89408e-08
1.3904e-05
8.76386e-08
1.39106e-05
1.06438e-07
1.38273e-05
8.21096e-08
1.3599e-05
-2.12081e-10
1.32188e-05
-1.24553e-07
1.2804e-05
-2.28198e-07
1.23739e-05
-2.84232e-07
1.19668e-05
-2.57209e-07
1.15899e-05
-1.72744e-07
1.12509e-05
-2.42733e-08
1.09662e-05
1.80622e-07
1.07278e-05
4.43109e-07
1.05474e-05
7.73042e-07
1.04446e-05
1.17489e-06
1.04407e-05
1.65077e-06
1.05568e-05
2.20773e-06
1.08406e-05
2.7883e-06
1.13917e-05
3.42799e-06
1.2216e-05
4.04063e-06
1.3395e-05
4.60211e-06
1.49927e-05
5.02892e-06
1.71084e-05
5.18557e-06
1.96817e-05
5.17161e-06
2.17877e-05
4.66333e-06
2.29974e-05
3.89334e-06
2.35507e-05
3.07924e-06
2.37816e-05
2.41727e-06
2.38784e-05
1.87364e-06
2.39245e-05
1.45552e-06
2.39526e-05
1.12496e-06
2.39755e-05
8.71297e-07
2.39974e-05
6.7126e-07
2.40203e-05
5.16886e-07
2.40447e-05
3.96829e-07
2.40708e-05
3.05892e-07
2.40984e-05
2.372e-07
2.41269e-05
1.85602e-07
2.41556e-05
1.47232e-07
2.41841e-05
1.19498e-07
2.42123e-05
9.961e-08
2.42398e-05
8.3508e-08
2.42657e-05
6.93775e-08
2.4289e-05
5.77864e-08
2.43092e-05
5.04333e-08
2.43257e-05
4.69854e-08
2.43375e-05
4.05972e-08
2.43432e-05
2.9286e-08
1.25079e-08
1.72687e-05
3.48751e-09
1.73391e-05
1.71463e-08
1.74153e-05
3.97404e-08
1.74723e-05
4.74213e-08
1.74647e-05
2.28473e-08
1.73234e-05
-3.78757e-08
1.7004e-05
-1.229e-07
1.65381e-05
-1.84695e-07
1.60543e-05
-1.93299e-07
1.55539e-05
-1.28301e-07
1.50587e-05
6.89463e-09
1.46031e-05
2.06361e-07
1.41965e-05
4.58241e-07
1.38593e-05
7.65291e-07
1.36144e-05
1.13421e-06
1.35032e-05
1.57343e-06
1.35496e-05
2.08054e-06
1.37733e-05
2.63176e-06
1.42861e-05
3.23517e-06
1.51422e-05
3.87555e-06
1.63891e-05
4.4908e-06
1.80583e-05
5.01581e-06
2.03484e-05
5.32975e-06
2.3212e-05
5.38846e-06
2.5799e-05
5.08494e-06
2.75927e-05
4.41244e-06
2.8626e-05
3.64012e-06
2.91632e-05
2.90731e-06
2.94594e-05
2.30002e-06
2.96358e-05
1.80165e-06
2.97554e-05
1.41277e-06
2.98445e-05
1.10295e-06
2.99171e-05
8.62062e-07
2.99796e-05
6.70393e-07
3.00362e-05
5.20594e-07
3.00887e-05
4.03e-07
3.01388e-05
3.12884e-07
3.01869e-05
2.44245e-07
3.0233e-05
1.92357e-07
3.0277e-05
1.53556e-07
3.0319e-05
1.24907e-07
3.03594e-05
1.03452e-07
3.03979e-05
8.54867e-08
3.04337e-05
7.01485e-08
3.04654e-05
5.82325e-08
3.04926e-05
5.05089e-08
3.05152e-05
4.64227e-08
3.05322e-05
3.98865e-08
3.05417e-05
2.98891e-08
1.34747e-08
2.16152e-05
-8.88756e-09
2.17007e-05
-1.44456e-08
2.1798e-05
-8.32834e-09
2.18902e-05
-1.01533e-08
2.19447e-05
-3.027e-08
2.19105e-05
-6.52521e-08
2.17274e-05
-9.49242e-08
2.13812e-05
-9.08035e-08
2.08957e-05
-1.90454e-08
2.03373e-05
1.20183e-07
1.97977e-05
3.30214e-07
1.9283e-05
5.91361e-07
1.88269e-05
9.01966e-07
1.84715e-05
1.25405e-06
1.82558e-05
1.65209e-06
1.8226e-05
2.10896e-06
1.84168e-05
2.62988e-06
1.88893e-05
3.14249e-06
1.98208e-05
3.72901e-06
2.12085e-05
4.29107e-06
2.30986e-05
4.77303e-06
2.54568e-05
5.08658e-06
2.84157e-05
5.20225e-06
3.11274e-05
5.05263e-06
3.32779e-05
4.53794e-06
3.47083e-05
3.88871e-06
3.56108e-05
3.2055e-06
3.61796e-05
2.58194e-06
3.6563e-05
2.05963e-06
3.68363e-05
1.63079e-06
3.70445e-05
1.2916e-06
3.72092e-05
1.01941e-06
3.73456e-05
8.04343e-07
3.74616e-05
6.31303e-07
3.75637e-05
4.93908e-07
3.76551e-05
3.85077e-07
3.77385e-05
3.0096e-07
3.78152e-05
2.36642e-07
3.78858e-05
1.87917e-07
3.79511e-05
1.51314e-07
3.80118e-05
1.23626e-07
3.80687e-05
1.0192e-07
3.81218e-05
8.31364e-08
3.81702e-05
6.74638e-08
3.82127e-05
5.60306e-08
3.82488e-05
4.85105e-08
3.8279e-05
4.38041e-08
3.83027e-05
3.66636e-08
3.83175e-05
2.77895e-08
1.31532e-08
2.70677e-05
-1.73071e-08
2.71613e-05
-3.73564e-08
2.72692e-05
-4.40877e-08
2.73817e-05
-5.23173e-08
2.74805e-05
-6.6448e-08
2.75359e-05
-7.58514e-08
2.75115e-05
-5.78659e-08
2.73726e-05
1.76835e-08
2.71081e-05
1.77728e-07
2.67318e-05
4.21906e-07
2.62931e-05
7.36491e-07
2.58567e-05
1.09072e-06
2.5497e-05
1.46812e-06
2.52911e-05
1.85318e-06
2.53163e-05
2.24728e-06
2.55583e-05
2.65766e-06
2.60892e-05
3.09696e-06
2.71846e-05
3.54473e-06
2.87983e-05
3.99178e-06
3.0881e-05
4.36709e-06
3.33483e-05
4.61031e-06
3.59264e-05
4.70817e-06
3.84148e-05
4.5452e-06
4.05631e-05
4.21129e-06
4.22067e-05
3.71073e-06
4.34184e-05
3.1487e-06
4.43013e-05
2.59514e-06
4.49557e-05
2.10076e-06
4.5457e-05
1.68698e-06
4.58494e-05
1.34878e-06
4.61648e-05
1.07927e-06
4.64229e-05
8.61232e-07
4.66394e-05
6.85888e-07
4.68243e-05
5.42608e-07
4.69859e-05
4.26676e-07
4.7129e-05
3.34094e-07
4.72571e-05
2.62436e-07
4.73723e-05
2.07949e-07
4.74763e-05
1.66917e-07
4.75705e-05
1.36095e-07
4.76565e-05
1.12127e-07
4.77354e-05
9.23286e-08
4.78074e-05
7.47134e-08
4.78721e-05
6.01875e-08
4.79285e-05
5.00452e-08
4.79763e-05
4.34686e-08
4.8016e-05
3.86735e-08
4.80479e-05
3.03848e-08
4.807e-05
2.15504e-08
1.03612e-08
3.39118e-05
-1.88998e-08
3.40105e-05
-4.62563e-08
3.41243e-05
-6.31755e-08
3.42513e-05
-7.91868e-08
3.43836e-05
-9.30999e-08
3.45088e-05
-9.02841e-08
3.46124e-05
-4.62057e-08
3.4681e-05
6.80725e-08
3.47087e-05
2.76336e-07
3.47007e-05
5.75338e-07
3.46826e-05
9.43847e-07
3.4701e-05
1.34274e-06
3.48243e-05
1.73689e-06
3.51286e-05
2.1003e-06
3.56926e-05
2.42844e-06
3.655e-05
2.72846e-06
3.77312e-05
3.01232e-06
3.93111e-05
3.29311e-06
4.12268e-05
3.5158e-06
4.33797e-05
3.66367e-06
4.56354e-05
3.6901e-06
4.78618e-05
3.5944e-06
4.98869e-05
3.35637e-06
5.16442e-05
3.03095e-06
5.31121e-05
2.62268e-06
5.43083e-05
2.207e-06
5.52743e-05
1.81394e-06
5.6054e-05
1.47198e-06
5.66877e-05
1.18913e-06
5.72056e-05
9.60134e-07
5.76344e-05
7.76621e-07
5.79935e-05
6.26449e-07
5.82988e-05
5.03071e-07
5.85621e-05
3.99867e-07
5.87928e-05
3.14228e-07
5.89968e-05
2.45562e-07
5.91784e-05
1.93131e-07
5.93406e-05
1.54202e-07
5.9486e-05
1.25525e-07
5.9617e-05
1.0414e-07
5.97355e-05
8.69824e-08
5.98428e-05
7.19519e-08
5.9939e-05
5.82763e-08
6.00243e-05
4.68536e-08
6.00986e-05
3.89066e-08
6.0162e-05
3.37694e-08
6.02143e-05
2.96955e-08
6.02554e-05
2.13327e-08
6.02839e-05
1.2992e-08
6.45532e-09
4.25054e-05
-1.04119e-08
4.26039e-05
-3.37078e-08
4.2715e-05
-5.72184e-08
4.28464e-05
-8.62308e-08
4.29975e-05
-1.11145e-07
4.31634e-05
-1.12501e-07
4.33506e-05
-7.72675e-08
4.35671e-05
2.277e-08
4.38131e-05
2.20522e-07
4.4126e-05
4.77949e-07
4.45597e-05
7.60437e-07
4.51541e-05
1.0479e-06
4.59371e-05
1.31835e-06
4.69324e-05
1.54712e-06
4.81581e-05
1.72538e-06
4.96029e-05
1.8641e-06
5.12704e-05
1.98827e-06
5.31565e-05
2.09248e-06
5.51959e-05
2.15434e-06
5.73195e-05
2.1659e-06
5.94442e-05
2.10591e-06
6.14945e-05
1.98513e-06
6.34053e-05
1.79144e-06
6.51404e-05
1.5659e-06
6.66606e-05
1.32094e-06
6.79663e-05
1.0892e-06
6.90692e-05
8.82946e-07
6.99945e-05
7.10968e-07
7.07709e-05
5.73277e-07
7.14237e-05
4.65851e-07
7.19754e-05
3.81901e-07
7.2444e-05
3.13253e-07
7.28457e-05
2.54793e-07
7.31938e-05
2.02918e-07
7.34991e-05
1.57233e-07
7.37696e-05
1.19916e-07
7.40109e-05
9.25499e-08
7.42268e-05
7.43676e-08
7.44199e-05
6.29761e-08
7.45931e-05
5.50988e-08
7.47491e-05
4.8041e-08
7.48892e-05
4.08824e-08
7.50141e-05
3.35082e-08
7.51241e-05
2.70041e-08
7.522e-05
2.22403e-08
7.53022e-05
1.88886e-08
7.53717e-05
1.45917e-08
7.54248e-05
8.43513e-09
7.54608e-05
1.94564e-09
-3.65913e-10
5.33113e-05
5.34143e-05
5.34985e-05
5.35595e-05
5.36014e-05
5.36486e-05
5.37383e-05
5.39359e-05
5.434e-05
5.50116e-05
5.59771e-05
5.72435e-05
5.87953e-05
6.05914e-05
6.25794e-05
6.47164e-05
6.69838e-05
6.93559e-05
7.17832e-05
7.421e-05
7.65622e-05
7.87795e-05
8.0791e-05
8.25682e-05
8.40949e-05
8.53867e-05
8.64706e-05
8.73814e-05
8.81537e-05
8.88174e-05
8.93958e-05
8.99038e-05
9.03511e-05
9.07435e-05
9.10868e-05
9.13884e-05
9.16576e-05
9.19026e-05
9.21293e-05
9.23402e-05
9.25351e-05
9.27127e-05
9.28717e-05
9.30119e-05
9.31335e-05
9.32369e-05
9.33196e-05
9.33785e-05
9.34118e-05
)
;

boundaryField
{
    AXIS
    {
        type            empty;
        value           nonuniform 0();
    }
    OUTLET
    {
        type            calculated;