/*--------------------------------*- C++ -*----------------------------------*\
| =========                 |                                                 |
| \\      /  F ield         | OpenFOAM: The Open Source CFD Toolbox           |
|  \\    /   O peration     | Version:  2.4.x                                 |
|   \\  /    A nd           | Web:      www.OpenFOAM.org                      |
|    \\/     M anipulation  |                                                 |
\*---------------------------------------------------------------------------*/
FoamFile
{
    version     2.0;
    format      ascii;
    class       volScalarField;
    location    "0.03";
    object      rho;
}
// * * * * * * * * * * * * * * * * * * * * * * * * * * * * * * * * * * * * * //

dimensions      [1 -3 0 0 0 0 0];

internalField   nonuniform List<scalar> 
1250
(
1.00255
0.892698
0.800701
0.729163
0.670952
0.623174
0.583117
0.54899
0.518273
0.48602
0.457458
0.432518
0.409671
0.388586
0.36949
0.351855
0.335614
0.32344
0.311544
0.292798
0.26967
0.248848
0.263332
0.305399
0.37609
0.490818
0.668868
0.888313
1.06991
1.1476
1.17152
1.17808
1.17978
1.18019
1.18029
1.1803
1.1803
1.1803
1.1803
1.1803
1.18029
1.18029
1.18028
1.18028
1.18028
1.18027
1.18027
1.18026
1.18026
1.18025
0.995071
0.875942
0.784022
0.713773
0.657563
0.612001
0.574092
0.541855
0.508433
0.477214
0.449763
0.425753
0.403605
0.383381
0.364919
0.347749
0.3321
0.320344
0.308743
0.290516
0.268587
0.248592
0.263989
0.305907
0.376993
0.49199
0.670305
0.889447
1.07051
1.14779
1.17157
1.1781
1.17978
1.18019
1.18029
1.1803
1.1803
1.1803
1.1803
1.1803
1.18029
1.18029
1.18028
1.18028
1.18028
1.18027
1.18027
1.18026
1.18026
1.18025
0.97247
0.83212
0.742362
0.676993
0.627055
0.588217
0.553345
0.518276
0.486622
0.458149
0.433103
0.411074
0.390721
0.372197
0.354954
0.338942
0.324634
0.313697
0.302733
0.285477
0.266045
0.248176
0.265599
0.307207
0.379319
0.494995
0.674048
0.892471
1.07214
1.14829
1.1717
1.17813
1.17979
1.1802
1.18029
1.1803
1.1803
1.1803
1.1803
1.1803
1.18029
1.18029
1.18028
1.18028
1.18028
1.18027
1.18027
1.18026
1.18026
1.18025
0.909831
0.747385
0.669505
0.620834
0.581883
0.544343
0.511378
0.48207
0.455205
0.430658
0.40931
0.390252
0.372488
0.355991
0.340747
0.326517
0.313935
0.304231
0.293867
0.278427
0.26253
0.24792
0.268094
0.309444
0.383219
0.499962
0.680243
0.897762
1.07484
1.14912
1.17191
1.17818
1.1798
1.1802
1.18029
1.1803
1.1803
1.1803
1.1803
1.1803
1.18029
1.18029
1.18028
1.18028
1.18028
1.18027
1.18027
1.18026
1.18026
1.18025
0.725307
0.598518
0.570068
0.53775
0.510137
0.485574
0.461933
0.439388
0.418094
0.398111
0.381162
0.365371
0.350612
0.336887
0.323935
0.311546
0.300918
0.29262
0.283383
0.270096
0.25826
0.248378
0.271227
0.313061
0.388654
0.506994
0.688806
0.9058
1.07847
1.15023
1.17219
1.17825
1.17982
1.1802
1.18029
1.1803
1.1803
1.1803
1.1803
1.1803
1.18029
1.18029
1.18028
1.18028
1.18028
1.18027
1.18027
1.18026
1.18026
1.18025
0.336908
0.428801
0.448279
0.444406
0.433194
0.419928
0.405105
0.389677
0.374998
0.361639
0.350204
0.338838
0.327847
0.316407
0.305576
0.295271
0.286649
0.279855
0.272078
0.262522
0.25217
0.250017
0.27503
0.317969
0.395379
0.516062
0.699608
0.915781
1.0829
1.15158
1.17254
1.17833
1.17984
1.18021
1.18029
1.1803
1.1803
1.1803
1.1803
1.1803
1.18029
1.18029
1.18028
1.18028
1.18028
1.18027
1.18027
1.18026
1.18026
1.18025
0.218071
0.318278
0.360199
0.372273
0.372526
0.365866
0.356879
0.346866
0.336462
0.327332
0.319026
0.310617
0.302528
0.294686
0.287235
0.27903
0.272289
0.266903
0.26121
0.255385
0.247121
0.25177
0.279475
0.324239
0.403488
0.527034
0.712467
0.927431
1.08807
1.15311
1.17293
1.17842
1.17986
1.18021
1.18029
1.1803
1.1803
1.1803
1.1803
1.1803
1.18029
1.18029
1.18028
1.18028
1.18028
1.18027
1.18027
1.18026
1.18026
1.18025
0.188009
0.279441
0.320158
0.330787
0.332478
0.327161
0.320033
0.312376
0.304552
0.298258
0.292224
0.286076
0.280242
0.274585
0.269161
0.264006
0.259565
0.255507
0.25179
0.249023
0.244252
0.254803
0.284456
0.331845
0.413251
0.540053
0.727143
0.940412
1.09374
1.15475
1.17335
1.17852
1.17988
1.18022
1.18029
1.1803
1.1803
1.1803
1.1803
1.1803
1.18029
1.18029
1.18028
1.18028
1.18028
1.18027
1.18027
1.18026
1.18026
1.18025
0.193331
0.28707
0.319813
0.318364
0.311128
0.304073
0.295645
0.288029
0.281257
0.276069
0.271184
0.266443
0.261975
0.257739
0.253789
0.250228
0.247886
0.245717
0.243323
0.240813
0.244843
0.259315
0.289389
0.340676
0.424485
0.555131
0.743323
0.954324
1.09965
1.15645
1.17378
1.17863
1.17991
1.18022
1.18029
1.1803
1.1803
1.1803
1.1803
1.1803
1.18029
1.18029
1.18028
1.18028
1.18028
1.18027
1.18027
1.18026
1.18026
1.18025
0.265079
0.368323
0.373623
0.337259
0.312935
0.296015
0.283904
0.273983
0.265925
0.259342
0.253913
0.249237
0.245167
0.241557
0.238426
0.235837
0.234704
0.23422
0.23446
0.237873
0.246427
0.264456
0.295699
0.350857
0.437282
0.571671
0.76147
0.968715
1.10558
1.15815
1.17422
1.17873
1.17993
1.18023
1.18029
1.18031
1.1803
1.1803
1.1803
1.1803
1.18029
1.18029
1.18028
1.18028
1.18028
1.18027
1.18027
1.18026
1.18026
1.18025
0.762417
0.592575
0.497525
0.40347
0.342974
0.308127
0.286184
0.271223
0.261403
0.25364
0.246629
0.240987
0.236601
0.233048
0.230293
0.228593
0.228442
0.229341
0.232084
0.23968
0.249699
0.270588
0.304351
0.362701
0.451928
0.590002
0.781438
0.98359
1.11151
1.15983
1.17465
1.17884
1.17995
1.18023
1.18029
1.18031
1.1803
1.1803
1.1803
1.1803
1.18029
1.18029
1.18028
1.18028
1.18028
1.18027
1.18027
1.18026
1.18026
1.18025
1.02309
0.819651
0.679808
0.53768
0.424326
0.352347
0.309758
0.284703
0.267999
0.256547
0.248617
0.242481
0.237815
0.234288
0.231754
0.230518
0.230409
0.231933
0.235414
0.241926
0.255418
0.27863
0.315735
0.377049
0.469782
0.612238
0.804208
0.999917
1.11783
1.16162
1.17511
1.17895
1.17998
1.18024
1.1803
1.18031
1.1803
1.1803
1.1803
1.1803
1.18029
1.18029
1.18028
1.18028
1.18028
1.18027
1.18027
1.18026
1.18026
1.18025
1.11127
0.968022
0.842385
0.70464
0.564187
0.450961
0.371609
0.323123
0.293363
0.274645
0.261452
0.251855
0.244767
0.239541
0.235957
0.234013
0.233912
0.236173
0.240146
0.2481
0.264587
0.28961
0.331198
0.3953
0.493224
0.639998
0.831537
1.01871
1.1249
1.16363
1.17563
1.17908
1.18001
1.18024
1.1803
1.18031
1.1803
1.1803
1.1803
1.1803
1.18029
1.18029
1.18028
1.18028
1.18028
1.18027
1.18027
1.18026
1.18026
1.18025
1.14228
1.05038
0.947861
0.836981
0.710689
0.583667
0.476348
0.399932
0.348771
0.314252
0.290883
0.274481
0.262754
0.254193
0.248235
0.2447
0.243793
0.246024
0.250152
0.259727
0.27827
0.306938
0.352584
0.420363
0.524665
0.676036
0.864522
1.04074
1.1328
1.1659
1.17623
1.17923
1.18004
1.18025
1.1803
1.18031
1.1803
1.1803
1.1803
1.18029
1.18029
1.18029
1.18028
1.18028
1.18028
1.18027
1.18027
1.18026
1.18026
1.18025
1.15584
1.0937
1.01845
0.925851
0.820993
0.703272
0.589292
0.495175
0.425385
0.375577
0.340254
0.314824
0.295793
0.281601
0.271461
0.26498
0.262235
0.263586
0.267615
0.278187
0.2995
0.331982
0.380908
0.455195
0.566751
0.722185
0.905749
1.06544
1.14138
1.1684
1.17691
1.1794
1.18009
1.18026
1.1803
1.18031
1.1803
1.1803
1.1803
1.18029
1.18029
1.18029
1.18028
1.18028
1.18027
1.18027
1.18027
1.18026
1.18026
1.18025
1.16325
1.11923
1.06329
0.990739
0.898818
0.793992
0.685742
0.588211
0.509037
0.447715
0.401231
0.366153
0.339561
0.319749
0.305379
0.295918
0.290882
0.290869
0.294998
0.307106
0.33086
0.366465
0.421247
0.503726
0.622884
0.78174
0.958618
1.09145
1.15024
1.17102
1.17763
1.17959
1.18013
1.18027
1.1803
1.18031
1.1803
1.1803
1.1803
1.18029
1.18029
1.18029
1.18028
1.18028
1.18027
1.18027
1.18027
1.18026
1.18026
1.18025
1.16801
1.13605
1.09421
1.03801
0.963029
0.870176
0.76961
0.673815
0.591251
0.523779
0.470029
0.42776
0.394601
0.369148
0.350295
0.337352
0.330289
0.32955
0.334034
0.347912
0.37475
0.4164
0.479031
0.570272
0.696584
0.854156
1.01656
1.11676
1.15875
1.17357
1.17835
1.17978
1.18018
1.18028
1.1803
1.18031
1.1803
1.1803
1.1803
1.18029
1.18029
1.18029
1.18028
1.18028
1.18027
1.18027
1.18027
1.18026
1.18026
1.18025
1.17144
1.14836
1.11782
1.07609
1.01764
0.937282
0.845603
0.754822
0.673761
0.604507
0.546964
0.499921
0.46212
0.432478
0.410103
0.394674
0.386155
0.385193
0.39085
0.408079
0.439736
0.488301
0.559709
0.65952
0.790519
0.941937
1.07177
1.13906
1.16622
1.17586
1.179
1.17996
1.18022
1.18029
1.18031
1.18031
1.1803
1.1803
1.1803
1.18029
1.18029
1.18029
1.18028
1.18028
1.18027
1.18027
1.18027
1.18026
1.18026
1.18025
1.17404
1.15772
1.13589
1.10557
1.0621
1.00079
0.92194
0.840474
0.763758
0.694983
0.635841
0.586218
0.545835
0.513677
0.489375
0.472687
0.464077
0.464115
0.472206
0.49441
0.532211
0.588784
0.66844
0.77413
0.901293
1.0336
1.11711
1.15647
1.1721
1.17769
1.17954
1.1801
1.18026
1.1803
1.18031
1.18031
1.1803
1.1803
1.1803
1.18029
1.18029
1.18029
1.18028
1.18028
1.18027
1.18027
1.18027
1.18026
1.18026
1.18025
1.17597
1.16473
1.14982
1.12944
1.10053
1.05899
1.00214
0.93286
0.862346
0.799525
0.741998
0.692854
0.651698
0.618561
0.593699
0.577479
0.57059
0.57289
0.585473
0.613797
0.658074
0.721062
0.806669
0.911087
1.02365
1.1046
1.14861
1.16833
1.17615
1.17898
1.17992
1.18021
1.18029
1.18031
1.18031
1.18031
1.1803
1.1803
1.1803
1.18029
1.18029
1.18029
1.18028
1.18028
1.18027
1.18027
1.18027
1.18026
1.18026
1.18025
1.17751
1.17034
1.16097
1.14836
1.13088
1.10608
1.07132
1.02571
0.97196
0.915232
0.863347
0.819547
0.781813
0.751233
0.728696
0.715423
0.711743
0.717138
0.735284
0.769761
0.819413
0.883301
0.967288
1.04853
1.11055
1.14805
1.16692
1.17524
1.17854
1.17975
1.18015
1.18027
1.1803
1.18031
1.18031
1.18031
1.1803
1.1803
1.1803
1.18029
1.18029
1.18029
1.18028
1.18028
1.18027
1.18027
1.18027
1.18026
1.18026
1.18025
1.17867
1.17446
1.16903
1.16193
1.15249
1.13972
1.12229
1.09889
1.06912
1.03435
0.997479
0.961898
0.930478
0.905315
0.887917
0.880146
0.880974
0.891005
0.915585
0.952023
0.997995
1.0483
1.09528
1.13196
1.1559
1.16923
1.17574
1.17859
1.17972
1.18012
1.18026
1.1803
1.18031
1.18031
1.18031
1.18031
1.1803
1.1803
1.1803
1.18029
1.18029
1.18029
1.18028
1.18028
1.18027
1.18027
1.18027
1.18026
1.18026
1.18025
1.17952
1.17738
1.17459
1.17103
1.16651
1.16078
1.15348
1.14421
1.13258
1.11849
1.10248
1.08595
1.07071
1.05857
1.0512
1.04952
1.05262
1.06257
1.07895
1.0991
1.12052
1.1403
1.15615
1.16717
1.17386
1.17744
1.17915
1.17988
1.18017
1.18027
1.1803
1.18031
1.18031
1.18031
1.18031
1.18031
1.1803
1.1803
1.1803
1.18029
1.18029
1.18029
1.18028
1.18028
1.18027
1.18027
1.18027
1.18026
1.18026
1.18025
1.18011
1.17932
1.17814
1.17666
1.1749
1.17286
1.17048
1.16771
1.16447
1.16075
1.15663
1.15242
1.14863
1.1459
1.14478
1.14519
1.14714
1.15095
1.15633
1.16224
1.1678
1.17241
1.17578
1.17796
1.1792
1.17984
1.18013
1.18025
1.1803
1.18031
1.18032
1.18032
1.18032
1.18031
1.18031
1.18031
1.1803
1.1803
1.1803
1.18029
1.18029
1.18029
1.18028
1.18028
1.18027
1.18027
1.18027
1.18026
1.18026
1.18025
1.18033
1.18017
1.1799
1.17958
1.17924
1.17888
1.1785
1.1781
1.17768
1.17724
1.17679
1.17637
1.17603
1.17584
1.17586
1.17608
1.17651
1.17712
1.17782
1.17851
1.17912
1.17959
1.17991
1.18012
1.18023
1.18028
1.18031
1.18032
1.18032
1.18032
1.18032
1.18032
1.18032
1.18031
1.18031
1.18031
1.1803
1.1803
1.1803
1.18029
1.18029
1.18029
1.18028
1.18028
1.18027
1.18027
1.18027
1.18026
1.18026
1.18025
)
;

boundaryField
{
    AXIS
    {
        type            empty;
    }
    OUTLET
    {
        type            calculated;
        value           uniform 1.18025;
    }
    COFLOW
    {
        type            calculated;
        value           nonuniform List<scalar> 
15
(
1.18036
1.18037
1.18035
1.18035
1.18034
1.18034
1.18034
1.18034
1.18034
1.18034
1.18034
1.18034
1.18034
1.18034
1.18034
)
;
    }
    PILOT
    {
        type            calculated;
        value           nonuniform List<scalar> 5(0.156782 0.156786 0.156799 0.156804 0.156807);
    }
    FUEL
    {
        type            calculated;
        value           nonuniform List<scalar> 5(1.05087 1.05084 1.05097 1.05134 1.05158);
    }
    WALL
    {
        type            calculated;
        value           nonuniform List<scalar> 
50
(
1.18033
1.18017
1.1799
1.17958
1.17924
1.17888
1.1785
1.1781
1.17768
1.17724
1.17679
1.17637
1.17603
1.17584
1.17586
1.17608
1.17651
1.17712
1.17782
1.17851
1.17912
1.17959
1.17991
1.18012
1.18023
1.18028
1.18031
1.18032
1.18032
1.18032
1.18032
1.18032
1.18032
1.18031
1.18031
1.18031
1.1803
1.1803
1.1803
1.18029
1.18029
1.18029
1.18028
1.18028
1.18027
1.18027
1.18027
1.18026
1.18026
1.18025
)
;
    }
    front
    {
        type            wedge;
    }
    back
    {
        type            wedge;
    }
}


// ************************************************************************* //
