/*--------------------------------*- C++ -*----------------------------------*\
| =========                 |                                                 |
| \\      /  F ield         | OpenFOAM: The Open Source CFD Toolbox           |
|  \\    /   O peration     | Version:  2.4.x                                 |
|   \\  /    A nd           | Web:      www.OpenFOAM.org                      |
|    \\/     M anipulation  |                                                 |
\*---------------------------------------------------------------------------*/
FoamFile
{
    version     2.0;
    format      ascii;
    class       volScalarField;
    location    "0.03";
    object      T;
}
// * * * * * * * * * * * * * * * * * * * * * * * * * * * * * * * * * * * * * //

dimensions      [0 0 0 1 0 0 0];

internalField   nonuniform List<scalar> 
1250
(
308.103
345.532
385.16
423.027
459.939
495.532
530.029
563.517
597.465
637.307
677.282
716.555
756.72
797.973
839.427
881.704
924.603
959.845
997.458
1064.4
1167.07
1290.35
1246.5
1095.03
901.434
697.333
515.192
389.515
324.054
302.31
296.189
294.554
294.133
294.03
294.006
294.001
294
294
294
294
294
294
294
294
294
294
294
294
294
294
310.394
352.12
393.35
432.197
469.427
504.799
538.679
571.353
609.23
649.283
689.107
728.195
768.36
809.098
850.255
892.433
934.723
969.473
1006.9
1073.28
1172.68
1292.49
1243.9
1093.44
899.388
695.721
514.107
389.024
323.874
302.262
296.178
294.551
294.132
294.03
294.006
294.001
294
294
294
294
294
294
294
294
294
294
294
294
294
294
317.592
370.583
415.45
455.895
492.733
525.949
559.74
597.938
637.09
676.892
716.237
754.852
794.385
834.141
874.875
916.399
957.042
990.864
1027.84
1093.46
1185.9
1296.53
1237.53
1089.38
894.158
691.62
511.302
387.722
323.385
302.13
296.145
294.543
294.13
294.03
294.006
294.001
294
294
294
294
294
294
294
294
294
294
294
294
294
294
339.39
412.456
460.961
498.057
532.343
569.591
606.753
643.976
682.218
721.266
759.078
796.366
834.543
873.401
912.675
952.648
991.063
1023.16
1060.43
1123.24
1204.93
1300.79
1227.79
1082.38
885.505
684.945
506.727
385.468
322.584
301.914
296.093
294.531
294.128
294.029
294.006
294.001
294
294
294
294
294
294
294
294
294
294
294
294
294
294
424.985
515.345
543.441
577.322
609.436
640.848
674.014
708.801
744.972
782.362
817.263
852.702
888.744
925.147
962.279
1000.58
1036.12
1066
1102.14
1161.01
1229.1
1302.22
1215.87
1071.05
873.714
675.707
500.535
382.089
321.508
301.625
296.022
294.514
294.124
294.028
294.006
294.001
294
294
294
294
294
294
294
294
294
294
294
294
294
294
920.632
726.58
696.681
703.512
722.063
744.937
772.081
802.455
833.734
864.55
892.927
922.977
953.983
988.343
1023.25
1058.85
1090.86
1117.86
1151.49
1199.15
1263.31
1297.94
1201.72
1055.94
859.502
664.15
492.935
377.975
320.205
301.275
295.936
294.493
294.119
294.027
294.006
294.001
294
294
294
294
294
294
294
294
294
294
294
294
294
294
1465.81
996.259
878.73
849.005
847.412
861.821
882.559
907.175
934.485
959.972
984.548
1010.92
1037.76
1065.28
1092.94
1124.8
1152.74
1176.52
1204.37
1238.51
1295.46
1293.72
1185.53
1037.11
842.943
650.68
484.183
373.282
318.697
300.88
295.838
294.47
294.114
294.026
294.006
294.001
294
294
294
294
294
294
294
294
294
294
294
294
294
294
1739.71
1158.86
1006.04
969.099
960.657
973.4
992.626
1014.93
1039.33
1060.01
1080.91
1103.42
1125.85
1148.71
1171.7
1194.57
1215.23
1235.08
1255.78
1277.09
1317.89
1283.38
1167.84
1015.05
823.807
635.377
474.566
368.189
317.061
300.455
295.733
294.445
294.108
294.025
294.005
294.001
294
294
294
294
294
294
294
294
294
294
294
294
294
294
1711.82
1153.44
1027.4
1023.71
1040.72
1059.62
1085.46
1110.62
1134.5
1153.69
1172.76
1192.33
1211.67
1230.87
1249.55
1267.11
1279.41
1291.49
1306.64
1327.85
1322.16
1266.2
1151.24
990.492
802.822
618.517
464.395
362.882
315.373
300.017
295.624
294.418
294.102
294.023
294.005
294.001
294
294
294
294
294
294
294
294
294
294
294
294
294
294
1271.33
918.288
898.081
983.715
1050.57
1102.73
1143.38
1179.54
1211.09
1238.41
1262.05
1283.49
1303
1321.04
1337.3
1351.42
1358.11
1362
1364.04
1353.47
1320.58
1246.61
1129.99
963.491
780.155
601.017
453.492
357.55
313.697
299.582
295.516
294.393
294.096
294.022
294.005
294.001
294
294
294
294
294
294
294
294
294
294
294
294
294
294
453.033
579.406
685.294
836.678
974.318
1074.7
1148.91
1205.47
1245.42
1279.26
1312.25
1340.03
1362.42
1381.21
1396.15
1405.56
1406.4
1401.74
1388.57
1352.26
1310.29
1223.31
1100.92
933.759
755.709
582.739
442.071
352.201
312.037
299.151
295.409
294.367
294.09
294.021
294.005
294.001
294
294
294
294
294
294
294
294
294
294
294
294
294
294
338.722
421.426
506.024
635.965
799.409
954.565
1077.29
1163.91
1229.94
1279.45
1315.92
1345.63
1369.08
1387.25
1400.42
1406.5
1406.44
1397.6
1379.42
1348.71
1288.27
1193.14
1064.42
899.953
727.878
561.994
429.727
346.511
310.289
298.694
295.295
294.339
294.084
294.019
294.004
294.001
294
294
294
294
294
294
294
294
294
294
294
294
294
294
312.084
357.658
410.095
488.675
607.451
755.472
910.326
1040
1139.04
1210.57
1266.66
1310.57
1344.73
1370.74
1388.66
1397.91
1397.2
1384.03
1363.06
1324.74
1251.22
1153.57
1018.11
860.149
694.253
538.073
415.791
340.184
308.356
298.182
295.164
294.307
294.076
294.018
294.004
294.001
294
294
294
294
294
294
294
294
294
294
294
294
294
294
303.693
329.948
365.143
412.772
484.837
588.144
717.231
849.91
969.625
1070.9
1151.96
1216.2
1266.22
1305.02
1332.97
1349.47
1352.74
1340.31
1319.56
1275.12
1197.52
1093.86
959.849
810.761
653.685
509.884
400.125
333.054
306.226
297.607
295.014
294.27
294.068
294.016
294.004
294.001
294
294
294
294
294
294
294
294
294
294
294
294
294
294
300.167
317.031
340.171
373.754
420.811
490.114
583.093
691.333
801.527
904.198
994.307
1070.91
1136
1189.52
1230.54
1257.8
1269.05
1262.05
1244
1199.96
1120.01
1016.64
891.645
750.689
606.214
477.814
382.128
325.405
303.944
296.976
294.846
294.227
294.057
294.014
294.003
294.001
294
294
294
294
294
294
294
294
294
294
294
294
294
294
298.276
309.883
326.008
349.609
384.926
435.064
502.667
584.47
673.373
763.196
848.902
927.328
996.973
1055.83
1102.82
1135.82
1153.86
1153.35
1137.83
1095.22
1020.47
925.572
809.347
680.272
552.631
441.928
361.284
317.722
301.623
296.318
294.667
294.181
294.046
294.011
294.002
294.001
294
294
294
294
294
294
294
294
294
294
294
294
294
294
297.073
305.35
316.907
333.889
359.598
397.509
448.754
511.567
581.722
655.092
728.188
798.129
863.052
920.392
967.878
1003.27
1023.53
1025.46
1012.15
973.327
906.239
818.619
714.5
602.612
495.12
404.933
340.896
310.585
299.427
295.677
294.488
294.134
294.034
294.008
294.002
294
294
294
294
294
294
294
294
294
294
294
294
294
294
294
296.214
302.11
310.286
322.201
340.522
369.401
408.975
457.504
511.712
569.321
628.034
685.812
740.495
789.81
831.541
862.907
881.182
883.177
870.74
835.062
776.664
701.382
613.795
522.501
437.104
367.614
323.499
304.559
297.526
295.107
294.326
294.09
294.023
294.006
294.001
294
294
294
294
294
294
294
294
294
294
294
294
294
294
294
295.564
299.692
305.399
313.698
326.417
346.214
375.498
411.457
452.24
496.344
541.775
586.831
629.38
667.911
700.277
724.347
737.387
737.269
724.91
693.08
644.909
584.132
515.671
446.243
384.004
335.33
310.489
300.013
296.047
294.652
294.194
294.054
294.014
294.003
294.001
294
294
294
294
294
294
294
294
294
294
294
294
294
294
294
295.083
297.906
301.735
307.129
315.125
327.366
345.749
371.146
401.137
432.261
465.32
497.849
528.802
556.662
579.568
595.537
602.563
600.166
587.484
560.832
523.707
478.628
428.485
379.92
338.555
313.973
302.048
296.992
295.034
294.333
294.1
294.028
294.007
294.002
294
294
294
294
294
294
294
294
294
294
294
294
294
294
294
294
294.7
296.491
298.863
302.114
306.743
313.556
323.633
337.881
356.369
378.21
400.674
421.827
441.927
459.676
473.696
482.362
484.821
481.224
469.511
448.758
421.9
391.729
358.074
330.597
312.305
302.194
297.349
295.262
294.44
294.143
294.043
294.012
294.003
294.001
294
294
294
294
294
294
294
294
294
294
294
294
294
294
294
294
294.412
295.458
296.818
298.615
301.04
304.384
309.067
315.589
324.293
335.085
347.343
360.055
372.08
382.305
389.71
393.112
392.748
388.377
378.068
363.753
347.167
330.671
316.618
306.451
300.16
296.767
295.137
294.43
294.15
294.049
294.015
294.004
294.001
294
294
294
294
294
294
294
294
294
294
294
294
294
294
294
294
294
294.201
294.731
295.425
296.317
297.455
298.91
300.785
303.2
306.284
310.107
314.566
319.311
323.813
327.491
329.766
330.289
329.324
326.271
321.365
315.527
309.549
304.228
300.093
297.285
295.607
294.715
294.291
294.11
294.038
294.012
294.004
294.001
294
294
294
294
294
294
294
294
294
294
294
294
294
294
294
294
294
294
294.057
294.252
294.543
294.909
295.347
295.858
296.454
297.152
297.97
298.915
299.97
301.057
302.041
302.754
303.048
302.939
302.431
301.437
300.048
298.536
297.127
295.969
295.127
294.587
294.278
294.121
294.048
294.018
294.006
294.002
294.001
294
294
294
294
294
294
294
294
294
294
294
294
294
294
294
294
294
294
294
294.002
294.042
294.108
294.188
294.27
294.359
294.453
294.552
294.657
294.766
294.877
294.983
295.067
295.114
295.109
295.053
294.946
294.796
294.622
294.45
294.3
294.184
294.103
294.053
294.025
294.011
294.004
294.002
294.001
294
294
294
294
294
294
294
294
294
294
294
294
294
294
294
294
294
294
294
294
294
)
;

boundaryField
{
    AXIS
    {
        type            empty;
    }
    OUTLET
    {
        type            calculated;
        value           uniform 294;
    }
    COFLOW
    {
        type            calculated;
        value           uniform 294;
    }
    PILOT
    {
        type            calculated;
        value           uniform 2102.68;
    }
    FUEL
    {
        type            calculated;
        value           uniform 294;
    }
    WALL
    {
        type            calculated;
        value           nonuniform List<scalar> 
50
(
294.002
294.042
294.108
294.188
294.27
294.359
294.453
294.552
294.657
294.766
294.877
294.983
295.067
295.114
295.109
295.053
294.946
294.796
294.622
294.45
294.3
294.184
294.103
294.053
294.025
294.011
294.004
294.002
294.001
294
294
294
294
294
294
294
294
294
294
294
294
294
294
294
294
294
294
294
294
294
)
;
    }
    front
    {
        type            wedge;
    }
    back
    {
        type            wedge;
    }
}


// ************************************************************************* //
