/*--------------------------------*- C++ -*----------------------------------*\
| =========                 |                                                 |
| \\      /  F ield         | OpenFOAM: The Open Source CFD Toolbox           |
|  \\    /   O peration     | Version:  2.4.x                                 |
|   \\  /    A nd           | Web:      www.OpenFOAM.org                      |
|    \\/     M anipulation  |                                                 |
\*---------------------------------------------------------------------------*/
FoamFile
{
    version     2.0;
    format      ascii;
    class       volScalarField;
    location    "0.03";
    object      thermo:psi;
}
// * * * * * * * * * * * * * * * * * * * * * * * * * * * * * * * * * * * * * //

dimensions      [0 -2 2 0 0 0 0];

internalField   nonuniform List<scalar> 
1250
(
1.00132e-05
8.92461e-06
8.00573e-06
7.29076e-06
6.70882e-06
6.2312e-06
5.83065e-06
5.48947e-06
5.1823e-06
4.85983e-06
4.57424e-06
4.32483e-06
4.09641e-06
3.88555e-06
3.69462e-06
3.51828e-06
3.35588e-06
3.23413e-06
3.11516e-06
2.9277e-06
2.69642e-06
2.48824e-06
2.63308e-06
3.05375e-06
3.7606e-06
4.90782e-06
6.6882e-06
8.88259e-06
1.06984e-05
1.14753e-05
1.17145e-05
1.17801e-05
1.17971e-05
1.18013e-05
1.18022e-05
1.18024e-05
1.18025e-05
1.18025e-05
1.18025e-05
1.18025e-05
1.18025e-05
1.18025e-05
1.18025e-05
1.18025e-05
1.18025e-05
1.18025e-05
1.18025e-05
1.18025e-05
1.18025e-05
1.18025e-05
9.93881e-06
8.75685e-06
7.83903e-06
7.13695e-06
6.57506e-06
6.11953e-06
5.7405e-06
5.41814e-06
5.08395e-06
4.77179e-06
4.49731e-06
4.25722e-06
4.03576e-06
3.83353e-06
3.64892e-06
3.47724e-06
3.32074e-06
3.20319e-06
3.08716e-06
2.90489e-06
2.68561e-06
2.48569e-06
2.63966e-06
3.05884e-06
3.76964e-06
4.91954e-06
6.70256e-06
8.89394e-06
1.07044e-05
1.14771e-05
1.1715e-05
1.17802e-05
1.17971e-05
1.18013e-05
1.18022e-05
1.18024e-05
1.18025e-05
1.18025e-05
1.18025e-05
1.18025e-05
1.18025e-05
1.18025e-05
1.18025e-05
1.18025e-05
1.18025e-05
1.18025e-05
1.18025e-05
1.18025e-05
1.18025e-05
1.18025e-05
9.71188e-06
8.31859e-06
7.42254e-06
6.76918e-06
6.27e-06
5.8817e-06
5.53301e-06
5.18235e-06
4.86585e-06
4.58115e-06
4.33072e-06
4.11044e-06
3.90693e-06
3.7217e-06
3.54928e-06
3.38917e-06
3.24609e-06
3.13672e-06
3.02707e-06
2.8545e-06
2.66019e-06
2.48153e-06
2.65576e-06
3.07183e-06
3.7929e-06
4.94958e-06
6.73999e-06
8.92417e-06
1.07208e-05
1.14822e-05
1.17162e-05
1.17805e-05
1.17972e-05
1.18013e-05
1.18022e-05
1.18024e-05
1.18025e-05
1.18025e-05
1.18025e-05
1.18025e-05
1.18025e-05
1.18025e-05
1.18025e-05
1.18025e-05
1.18025e-05
1.18025e-05
1.18025e-05
1.18025e-05
1.18025e-05
1.18025e-05
9.08308e-06
7.47145e-06
6.69418e-06
6.20771e-06
5.81832e-06
5.44298e-06
5.11337e-06
4.82033e-06
4.55171e-06
4.30627e-06
4.09281e-06
3.90224e-06
3.72461e-06
3.55966e-06
3.40722e-06
3.26493e-06
3.13911e-06
3.04206e-06
2.93842e-06
2.78402e-06
2.62505e-06
2.47897e-06
2.68071e-06
3.0942e-06
3.8319e-06
4.99925e-06
6.80193e-06
8.97701e-06
1.07477e-05
1.14904e-05
1.17184e-05
1.1781e-05
1.17973e-05
1.18013e-05
1.18022e-05
1.18024e-05
1.18025e-05
1.18025e-05
1.18025e-05
1.18025e-05
1.18025e-05
1.18025e-05
1.18025e-05
1.18025e-05
1.18025e-05
1.18025e-05
1.18025e-05
1.18025e-05
1.18025e-05
1.18025e-05
7.23932e-06
5.98367e-06
5.70009e-06
5.37696e-06
5.10093e-06
4.85535e-06
4.61896e-06
4.39355e-06
4.18063e-06
3.98082e-06
3.81135e-06
3.65344e-06
3.50586e-06
3.36862e-06
3.23911e-06
3.11523e-06
3.00895e-06
2.92597e-06
2.83359e-06
2.70072e-06
2.58236e-06
2.48355e-06
2.71204e-06
3.13037e-06
3.88624e-06
5.06956e-06
6.88755e-06
9.05736e-06
1.0784e-05
1.15016e-05
1.17212e-05
1.17817e-05
1.17975e-05
1.18013e-05
1.18022e-05
1.18024e-05
1.18025e-05
1.18025e-05
1.18025e-05
1.18025e-05
1.18025e-05
1.18025e-05
1.18025e-05
1.18025e-05
1.18025e-05
1.18025e-05
1.18025e-05
1.18025e-05
1.18025e-05
1.18025e-05
3.36948e-06
4.28784e-06
4.48247e-06
4.44368e-06
4.3316e-06
4.19895e-06
4.05074e-06
3.89647e-06
3.7497e-06
3.61613e-06
3.50179e-06
3.38814e-06
3.27823e-06
3.16384e-06
3.05554e-06
2.9525e-06
2.86627e-06
2.79833e-06
2.72056e-06
2.62499e-06
2.52147e-06
2.49995e-06
2.75007e-06
3.17944e-06
3.95349e-06
5.16023e-06
6.99555e-06
9.15714e-06
1.08283e-05
1.1515e-05
1.17246e-05
1.17826e-05
1.17977e-05
1.18014e-05
1.18023e-05
1.18024e-05
1.18025e-05
1.18025e-05
1.18025e-05
1.18025e-05
1.18025e-05
1.18025e-05
1.18025e-05
1.18025e-05
1.18025e-05
1.18025e-05
1.18025e-05
1.18025e-05
1.18025e-05
1.18025e-05
2.18092e-06
3.18262e-06
3.60174e-06
3.72244e-06
3.72497e-06
3.65837e-06
3.56852e-06
3.4684e-06
3.36438e-06
3.27308e-06
3.19003e-06
3.10595e-06
3.02506e-06
2.94665e-06
2.87214e-06
2.7901e-06
2.72268e-06
2.66883e-06
2.61189e-06
2.55363e-06
2.47099e-06
2.51749e-06
2.79453e-06
3.24214e-06
4.03457e-06
5.26994e-06
7.12414e-06
9.27362e-06
1.088e-05
1.15303e-05
1.17285e-05
1.17835e-05
1.17979e-05
1.18014e-05
1.18023e-05
1.18024e-05
1.18025e-05
1.18025e-05
1.18025e-05
1.18025e-05
1.18025e-05
1.18025e-05
1.18025e-05
1.18025e-05
1.18025e-05
1.18025e-05
1.18025e-05
1.18025e-05
1.18025e-05
1.18025e-05
1.88011e-06
2.79427e-06
3.20138e-06
3.30763e-06
3.32453e-06
3.27136e-06
3.20008e-06
3.12352e-06
3.04529e-06
2.98236e-06
2.92203e-06
2.86056e-06
2.80222e-06
2.74565e-06
2.69142e-06
2.63987e-06
2.59546e-06
2.55488e-06
2.5177e-06
2.49001e-06
2.44231e-06
2.54782e-06
2.84433e-06
3.31819e-06
4.1322e-06
5.40011e-06
7.27089e-06
9.40342e-06
1.09367e-05
1.15467e-05
1.17327e-05
1.17845e-05
1.17981e-05
1.18015e-05
1.18023e-05
1.18024e-05
1.18025e-05
1.18025e-05
1.18025e-05
1.18025e-05
1.18025e-05
1.18025e-05
1.18025e-05
1.18025e-05
1.18025e-05
1.18025e-05
1.18025e-05
1.18025e-05
1.18025e-05
1.18025e-05
1.93327e-06
2.87054e-06
3.19792e-06
3.18341e-06
3.11105e-06
3.0405e-06
2.95623e-06
2.88008e-06
2.81237e-06
2.76049e-06
2.71164e-06
2.66424e-06
2.61956e-06
2.5772e-06
2.53771e-06
2.5021e-06
2.47868e-06
2.45698e-06
2.43304e-06
2.40793e-06
2.44823e-06
2.59294e-06
2.89366e-06
3.4065e-06
4.24453e-06
5.55088e-06
7.43268e-06
9.54252e-06
1.09957e-05
1.15638e-05
1.17371e-05
1.17856e-05
1.17984e-05
1.18015e-05
1.18023e-05
1.18024e-05
1.18025e-05
1.18025e-05
1.18025e-05
1.18025e-05
1.18025e-05
1.18025e-05
1.18025e-05
1.18025e-05
1.18025e-05
1.18025e-05
1.18025e-05
1.18025e-05
1.18025e-05
1.18025e-05
2.65068e-06
3.683e-06
3.73597e-06
3.37234e-06
3.12912e-06
2.95993e-06
2.83883e-06
2.73962e-06
2.65905e-06
2.59323e-06
2.53894e-06
2.49219e-06
2.45149e-06
2.4154e-06
2.38409e-06
2.3582e-06
2.34687e-06
2.34203e-06
2.34442e-06
2.37855e-06
2.46407e-06
2.64436e-06
2.95676e-06
3.5083e-06
4.37248e-06
5.71627e-06
7.61413e-06
9.68643e-06
1.1055e-05
1.15807e-05
1.17414e-05
1.17866e-05
1.17986e-05
1.18016e-05
1.18023e-05
1.18024e-05
1.18025e-05
1.18025e-05
1.18025e-05
1.18025e-05
1.18025e-05
1.18025e-05
1.18025e-05
1.18025e-05
1.18025e-05
1.18025e-05
1.18025e-05
1.18025e-05
1.18025e-05
1.18025e-05
7.62345e-06
5.92534e-06
4.97488e-06
4.03439e-06
3.42948e-06
3.08103e-06
2.86163e-06
2.71203e-06
2.61384e-06
2.53622e-06
2.46611e-06
2.4097e-06
2.36584e-06
2.33031e-06
2.30277e-06
2.28577e-06
2.28426e-06
2.29324e-06
2.32067e-06
2.39662e-06
2.4968e-06
2.70567e-06
3.04328e-06
3.62673e-06
4.51894e-06
5.89956e-06
7.81378e-06
9.83516e-06
1.11144e-05
1.15975e-05
1.17457e-05
1.17877e-05
1.17988e-05
1.18016e-05
1.18023e-05
1.18024e-05
1.18025e-05
1.18025e-05
1.18025e-05
1.18025e-05
1.18025e-05
1.18025e-05
1.18025e-05
1.18025e-05
1.18025e-05
1.18025e-05
1.18025e-05
1.18025e-05
1.18025e-05
1.18025e-05
1.02299e-05
8.19589e-06
6.79756e-06
5.37638e-06
4.24293e-06
3.5232e-06
3.09735e-06
2.84681e-06
2.6798e-06
2.56528e-06
2.48599e-06
2.42464e-06
2.37798e-06
2.34272e-06
2.31738e-06
2.30502e-06
2.30393e-06
2.31916e-06
2.35397e-06
2.41908e-06
2.55399e-06
2.78609e-06
3.15711e-06
3.77021e-06
4.69747e-06
6.12191e-06
8.04147e-06
9.99842e-06
1.11776e-05
1.16154e-05
1.17503e-05
1.17888e-05
1.17991e-05
1.18017e-05
1.18023e-05
1.18025e-05
1.18025e-05
1.18025e-05
1.18025e-05
1.18025e-05
1.18025e-05
1.18025e-05
1.18025e-05
1.18025e-05
1.18025e-05
1.18025e-05
1.18025e-05
1.18025e-05
1.18025e-05
1.18025e-05
1.11118e-05
9.67947e-06
8.4232e-06
7.04586e-06
5.64143e-06
4.50927e-06
3.71581e-06
3.23099e-06
2.93342e-06
2.74625e-06
2.61433e-06
2.51837e-06
2.4475e-06
2.39524e-06
2.3594e-06
2.33997e-06
2.33896e-06
2.36156e-06
2.40129e-06
2.48082e-06
2.64567e-06
2.89589e-06
3.31173e-06
3.9527e-06
4.93187e-06
6.39949e-06
8.31473e-06
1.01864e-05
1.12483e-05
1.16355e-05
1.17555e-05
1.17901e-05
1.17994e-05
1.18018e-05
1.18023e-05
1.18025e-05
1.18025e-05
1.18025e-05
1.18025e-05
1.18025e-05
1.18025e-05
1.18025e-05
1.18025e-05
1.18025e-05
1.18025e-05
1.18025e-05
1.18025e-05
1.18025e-05
1.18025e-05
1.18025e-05
1.14219e-05
1.05029e-05
9.47787e-06
8.36916e-06
7.10635e-06
5.83622e-06
4.76312e-06
3.99902e-06
3.48745e-06
3.14229e-06
2.90862e-06
2.74461e-06
2.62735e-06
2.54175e-06
2.48217e-06
2.44683e-06
2.43776e-06
2.46007e-06
2.50134e-06
2.59709e-06
2.7825e-06
3.06916e-06
3.52558e-06
4.20332e-06
5.24626e-06
6.75985e-06
8.64457e-06
1.04066e-05
1.13272e-05
1.16582e-05
1.17616e-05
1.17916e-05
1.17997e-05
1.18018e-05
1.18023e-05
1.18025e-05
1.18025e-05
1.18025e-05
1.18025e-05
1.18025e-05
1.18025e-05
1.18025e-05
1.18025e-05
1.18025e-05
1.18025e-05
1.18025e-05
1.18025e-05
1.18025e-05
1.18025e-05
1.18025e-05
1.15575e-05
1.09361e-05
1.01838e-05
9.2578e-06
8.2093e-06
7.03218e-06
5.89248e-06
4.95138e-06
4.25354e-06
3.75549e-06
3.4023e-06
3.14801e-06
2.95772e-06
2.81582e-06
2.71442e-06
2.64962e-06
2.62217e-06
2.63569e-06
2.67597e-06
2.78167e-06
2.99478e-06
3.31958e-06
3.8088e-06
4.55161e-06
5.66708e-06
7.22131e-06
9.0568e-06
1.06536e-05
1.1413e-05
1.16832e-05
1.17683e-05
1.17933e-05
1.18002e-05
1.18019e-05
1.18024e-05
1.18025e-05
1.18025e-05
1.18025e-05
1.18025e-05
1.18025e-05
1.18025e-05
1.18025e-05
1.18025e-05
1.18025e-05
1.18025e-05
1.18025e-05
1.18025e-05
1.18025e-05
1.18025e-05
1.18025e-05
1.16316e-05
1.11914e-05
1.06321e-05
9.90663e-06
8.9875e-06
7.93932e-06
6.85691e-06
5.88167e-06
5.09e-06
4.47682e-06
4.01202e-06
3.66126e-06
3.39537e-06
3.19727e-06
3.05358e-06
2.95897e-06
2.90862e-06
2.9085e-06
2.94978e-06
3.07085e-06
3.30837e-06
3.66438e-06
4.21217e-06
5.03689e-06
6.22837e-06
7.8168e-06
9.58547e-06
1.09137e-05
1.15016e-05
1.17094e-05
1.17755e-05
1.17952e-05
1.18006e-05
1.1802e-05
1.18024e-05
1.18025e-05
1.18025e-05
1.18025e-05
1.18025e-05
1.18025e-05
1.18025e-05
1.18025e-05
1.18025e-05
1.18025e-05
1.18025e-05
1.18025e-05
1.18025e-05
1.18025e-05
1.18025e-05
1.18025e-05
1.16792e-05
1.13596e-05
1.09413e-05
1.03793e-05
9.62957e-06
8.70111e-06
7.69553e-06
6.73765e-06
5.91207e-06
5.23741e-06
4.69995e-06
4.27729e-06
3.94573e-06
3.69122e-06
3.50271e-06
3.37329e-06
3.30267e-06
3.29527e-06
3.34012e-06
3.47888e-06
3.74723e-06
4.1637e-06
4.78997e-06
5.7023e-06
6.96532e-06
8.54093e-06
1.01648e-05
1.11668e-05
1.15867e-05
1.1735e-05
1.17827e-05
1.17971e-05
1.18011e-05
1.18022e-05
1.18024e-05
1.18025e-05
1.18025e-05
1.18025e-05
1.18025e-05
1.18025e-05
1.18025e-05
1.18025e-05
1.18025e-05
1.18025e-05
1.18025e-05
1.18025e-05
1.18025e-05
1.18025e-05
1.18025e-05
1.18025e-05
1.17135e-05
1.14827e-05
1.11773e-05
1.07601e-05
1.01756e-05
9.37212e-06
8.45541e-06
7.54766e-06
6.73712e-06
6.04463e-06
5.46925e-06
4.99885e-06
4.62088e-06
4.32448e-06
4.10075e-06
3.94647e-06
3.86128e-06
3.85166e-06
3.90824e-06
4.08051e-06
4.39706e-06
4.88267e-06
5.5967e-06
6.59472e-06
7.9046e-06
9.41867e-06
1.07169e-05
1.13898e-05
1.16614e-05
1.17578e-05
1.17893e-05
1.17988e-05
1.18015e-05
1.18023e-05
1.18024e-05
1.18025e-05
1.18025e-05
1.18025e-05
1.18025e-05
1.18025e-05
1.18025e-05
1.18025e-05
1.18025e-05
1.18025e-05
1.18025e-05
1.18025e-05
1.18025e-05
1.18025e-05
1.18025e-05
1.18025e-05
1.17395e-05
1.15763e-05
1.13581e-05
1.10549e-05
1.06202e-05
1.00072e-05
9.21872e-06
8.40412e-06
7.63703e-06
6.94933e-06
6.35795e-06
5.86177e-06
5.45797e-06
5.13642e-06
4.89341e-06
4.72655e-06
4.64045e-06
4.64083e-06
4.72174e-06
4.94376e-06
5.32175e-06
5.88743e-06
6.68393e-06
7.74074e-06
9.01227e-06
1.03352e-05
1.11703e-05
1.15639e-05
1.17202e-05
1.17762e-05
1.17946e-05
1.18003e-05
1.18019e-05
1.18023e-05
1.18025e-05
1.18025e-05
1.18025e-05
1.18025e-05
1.18025e-05
1.18025e-05
1.18025e-05
1.18025e-05
1.18025e-05
1.18025e-05
1.18025e-05
1.18025e-05
1.18025e-05
1.18025e-05
1.18025e-05
1.18025e-05
1.17588e-05
1.16464e-05
1.14973e-05
1.12936e-05
1.10044e-05
1.05891e-05
1.00207e-05
9.32791e-06
8.62283e-06
7.99467e-06
7.41945e-06
6.92804e-06
6.51652e-06
6.18518e-06
5.93657e-06
5.77439e-06
5.70551e-06
5.7285e-06
5.85433e-06
6.13755e-06
6.58029e-06
7.21013e-06
8.06613e-06
9.11022e-06
1.02358e-05
1.10452e-05
1.14853e-05
1.16825e-05
1.17608e-05
1.1789e-05
1.17984e-05
1.18013e-05
1.18022e-05
1.18024e-05
1.18025e-05
1.18025e-05
1.18025e-05
1.18025e-05
1.18025e-05
1.18025e-05
1.18025e-05
1.18025e-05
1.18025e-05
1.18025e-05
1.18025e-05
1.18025e-05
1.18025e-05
1.18025e-05
1.18025e-05
1.18025e-05
1.17742e-05
1.17025e-05
1.16088e-05
1.14828e-05
1.13079e-05
1.106e-05
1.07124e-05
1.02563e-05
9.71889e-06
9.15166e-06
8.63285e-06
8.19489e-06
7.81757e-06
7.5118e-06
7.28645e-06
7.15373e-06
7.11694e-06
7.17089e-06
7.35233e-06
7.69708e-06
8.19358e-06
8.83244e-06
9.67223e-06
1.04846e-05
1.11047e-05
1.14797e-05
1.16684e-05
1.17516e-05
1.17847e-05
1.17967e-05
1.18007e-05
1.1802e-05
1.18024e-05
1.18025e-05
1.18025e-05
1.18025e-05
1.18025e-05
1.18025e-05
1.18025e-05
1.18025e-05
1.18025e-05
1.18025e-05
1.18025e-05
1.18025e-05
1.18025e-05
1.18025e-05
1.18025e-05
1.18025e-05
1.18025e-05
1.18025e-05
1.17858e-05
1.17437e-05
1.16894e-05
1.16185e-05
1.15241e-05
1.13964e-05
1.12221e-05
1.09881e-05
1.06904e-05
1.03427e-05
9.97407e-06
9.61829e-06
9.30412e-06
9.05251e-06
8.87854e-06
8.80085e-06
8.80912e-06
8.90943e-06
9.15522e-06
9.51957e-06
9.97927e-06
1.04822e-05
1.09521e-05
1.13188e-05
1.15582e-05
1.16915e-05
1.17566e-05
1.17851e-05
1.17964e-05
1.18005e-05
1.18019e-05
1.18023e-05
1.18024e-05
1.18025e-05
1.18025e-05
1.18025e-05
1.18025e-05
1.18025e-05
1.18025e-05
1.18025e-05
1.18025e-05
1.18025e-05
1.18025e-05
1.18025e-05
1.18025e-05
1.18025e-05
1.18025e-05
1.18025e-05
1.18025e-05
1.18025e-05
1.17944e-05
1.1773e-05
1.17451e-05
1.17094e-05
1.16642e-05
1.16069e-05
1.15339e-05
1.14412e-05
1.13249e-05
1.11841e-05
1.1024e-05
1.08587e-05
1.07063e-05
1.05849e-05
1.05112e-05
1.04944e-05
1.05255e-05
1.06249e-05
1.07887e-05
1.09902e-05
1.12045e-05
1.14022e-05
1.15607e-05
1.16709e-05
1.17378e-05
1.17736e-05
1.17907e-05
1.17981e-05
1.18009e-05
1.1802e-05
1.18023e-05
1.18024e-05
1.18025e-05
1.18025e-05
1.18025e-05
1.18025e-05
1.18025e-05
1.18025e-05
1.18025e-05
1.18025e-05
1.18025e-05
1.18025e-05
1.18025e-05
1.18025e-05
1.18025e-05
1.18025e-05
1.18025e-05
1.18025e-05
1.18025e-05
1.18025e-05
1.18002e-05
1.17923e-05
1.17805e-05
1.17658e-05
1.17482e-05
1.17277e-05
1.17039e-05
1.16762e-05
1.16438e-05
1.16067e-05
1.15655e-05
1.15233e-05
1.14855e-05
1.14582e-05
1.1447e-05
1.14511e-05
1.14706e-05
1.15087e-05
1.15625e-05
1.16216e-05
1.16772e-05
1.17233e-05
1.1757e-05
1.17788e-05
1.17912e-05
1.17976e-05
1.18005e-05
1.18018e-05
1.18022e-05
1.18024e-05
1.18025e-05
1.18025e-05
1.18025e-05
1.18025e-05
1.18025e-05
1.18025e-05
1.18025e-05
1.18025e-05
1.18025e-05
1.18025e-05
1.18025e-05
1.18025e-05
1.18025e-05
1.18025e-05
1.18025e-05
1.18025e-05
1.18025e-05
1.18025e-05
1.18025e-05
1.18025e-05
1.18024e-05
1.18008e-05
1.17981e-05
1.17949e-05
1.17916e-05
1.1788e-05
1.17842e-05
1.17802e-05
1.17759e-05
1.17715e-05
1.1767e-05
1.17628e-05
1.17594e-05
1.17575e-05
1.17577e-05
1.176e-05
1.17643e-05
1.17703e-05
1.17773e-05
1.17843e-05
1.17904e-05
1.17951e-05
1.17983e-05
1.18003e-05
1.18015e-05
1.1802e-05
1.18023e-05
1.18024e-05
1.18025e-05
1.18025e-05
1.18025e-05
1.18025e-05
1.18025e-05
1.18025e-05
1.18025e-05
1.18025e-05
1.18025e-05
1.18025e-05
1.18025e-05
1.18025e-05
1.18025e-05
1.18025e-05
1.18025e-05
1.18025e-05
1.18025e-05
1.18025e-05
1.18025e-05
1.18025e-05
1.18025e-05
1.18025e-05
)
;

boundaryField
{
    AXIS
    {
        type            empty;
    }
    OUTLET
    {
        type            calculated;
        value           uniform 1.18025e-05;
    }
    COFLOW
    {
        type            calculated;
        value           uniform 1.18025e-05;
    }
    PILOT
    {
        type            calculated;
        value           uniform 1.56801e-06;
    }
    FUEL
    {
        type            calculated;
        value           uniform 1.04958e-05;
    }
    WALL
    {
        type            calculated;
        value           nonuniform List<scalar> 
50
(
1.18024e-05
1.18008e-05
1.17981e-05
1.17949e-05
1.17916e-05
1.1788e-05
1.17842e-05
1.17802e-05
1.17759e-05
1.17715e-05
1.1767e-05
1.17628e-05
1.17594e-05
1.17575e-05
1.17577e-05
1.176e-05
1.17643e-05
1.17703e-05
1.17773e-05
1.17843e-05
1.17904e-05
1.17951e-05
1.17983e-05
1.18003e-05
1.18015e-05
1.1802e-05
1.18023e-05
1.18024e-05
1.18025e-05
1.18025e-05
1.18025e-05
1.18025e-05
1.18025e-05
1.18025e-05
1.18025e-05
1.18025e-05
1.18025e-05
1.18025e-05
1.18025e-05
1.18025e-05
1.18025e-05
1.18025e-05
1.18025e-05
1.18025e-05
1.18025e-05
1.18025e-05
1.18025e-05
1.18025e-05
1.18025e-05
1.18025e-05
)
;
    }
    front
    {
        type            wedge;
    }
    back
    {
        type            wedge;
    }
}


// ************************************************************************* //
