/*--------------------------------*- C++ -*----------------------------------*\
| =========                 |                                                 |
| \\      /  F ield         | OpenFOAM: The Open Source CFD Toolbox           |
|  \\    /   O peration     | Version:  2.4.x                                 |
|   \\  /    A nd           | Web:      www.OpenFOAM.org                      |
|    \\/     M anipulation  |                                                 |
\*---------------------------------------------------------------------------*/
FoamFile
{
    version     2.0;
    format      ascii;
    class       volScalarField;
    location    "0.03";
    object      thermo:alpha;
}
// * * * * * * * * * * * * * * * * * * * * * * * * * * * * * * * * * * * * * //

dimensions      [1 -1 -1 0 0 0 0];

internalField   nonuniform List<scalar> 
1250
(
2.72198e-05
2.99449e-05
3.26805e-05
3.5166e-05
3.74808e-05
3.96222e-05
4.16206e-05
4.34945e-05
4.53333e-05
4.74203e-05
4.94443e-05
5.13714e-05
5.3284e-05
5.51921e-05
5.70567e-05
5.89079e-05
6.07387e-05
6.221e-05
6.37498e-05
6.64257e-05
7.03931e-05
7.5027e-05
7.36959e-05
6.82333e-05
6.04278e-05
5.10276e-05
4.11637e-05
3.31988e-05
2.8549e-05
2.69136e-05
2.64444e-05
2.63183e-05
2.62858e-05
2.62779e-05
2.62761e-05
2.62757e-05
2.62756e-05
2.62756e-05
2.62756e-05
2.62756e-05
2.62756e-05
2.62756e-05
2.62756e-05
2.62756e-05
2.62756e-05
2.62756e-05
2.62756e-05
2.62756e-05
2.62756e-05
2.62756e-05
2.73909e-05
3.04099e-05
3.32282e-05
3.57506e-05
3.80601e-05
4.01663e-05
4.21109e-05
4.39245e-05
4.59578e-05
4.80342e-05
5.0031e-05
5.19318e-05
5.38283e-05
5.56979e-05
5.75359e-05
5.93705e-05
6.11644e-05
6.26072e-05
6.41323e-05
6.67744e-05
7.06066e-05
7.51088e-05
7.36064e-05
6.81736e-05
6.03403e-05
5.09472e-05
4.10996e-05
3.31653e-05
2.85357e-05
2.69099e-05
2.64435e-05
2.63181e-05
2.62858e-05
2.62779e-05
2.62761e-05
2.62757e-05
2.62756e-05
2.62756e-05
2.62756e-05
2.62756e-05
2.62756e-05
2.62756e-05
2.62756e-05
2.62756e-05
2.62756e-05
2.62756e-05
2.62756e-05
2.62756e-05
2.62756e-05
2.62756e-05
2.79246e-05
3.16909e-05
3.4678e-05
3.72322e-05
3.94572e-05
4.13887e-05
4.32874e-05
4.53602e-05
4.74111e-05
4.94266e-05
5.13571e-05
5.31974e-05
5.50296e-05
5.68231e-05
5.86136e-05
6.03934e-05
6.20947e-05
6.34824e-05
6.49749e-05
6.75613e-05
7.11073e-05
7.52666e-05
7.33866e-05
6.80205e-05
6.0116e-05
5.07424e-05
4.09334e-05
3.30765e-05
2.84995e-05
2.68999e-05
2.6441e-05
2.63175e-05
2.62856e-05
2.62779e-05
2.62761e-05
2.62757e-05
2.62756e-05
2.62756e-05
2.62756e-05
2.62756e-05
2.62756e-05
2.62756e-05
2.62756e-05
2.62756e-05
2.62756e-05
2.62756e-05
2.62756e-05
2.62756e-05
2.62756e-05
2.62756e-05
2.95075e-05
3.44834e-05
3.75434e-05
3.97717e-05
4.17539e-05
4.38309e-05
4.58306e-05
4.77675e-05
4.96945e-05
5.1602e-05
5.33974e-05
5.51219e-05
5.68428e-05
5.85515e-05
6.02376e-05
6.19145e-05
6.34914e-05
6.47878e-05
6.62692e-05
6.87099e-05
7.18253e-05
7.54403e-05
7.30493e-05
6.77554e-05
5.97431e-05
5.04074e-05
4.06613e-05
3.29224e-05
2.844e-05
2.68834e-05
2.64369e-05
2.63165e-05
2.62854e-05
2.62778e-05
2.6276e-05
2.62757e-05
2.62756e-05
2.62756e-05
2.62756e-05
2.62756e-05
2.62756e-05
2.62756e-05
2.62756e-05
2.62756e-05
2.62756e-05
2.62756e-05
2.62756e-05
2.62756e-05
2.62756e-05
2.62756e-05
3.52904e-05
4.07763e-05
4.23803e-05
4.42549e-05
4.59767e-05
4.76128e-05
4.92928e-05
5.10063e-05
5.27395e-05
5.44833e-05
5.60728e-05
5.76501e-05
5.92188e-05
6.07695e-05
6.23175e-05
6.38807e-05
6.53074e-05
6.64891e-05
6.7897e-05
7.01464e-05
7.2732e-05
7.55216e-05
7.26357e-05
6.73218e-05
5.92315e-05
4.99405e-05
4.0291e-05
3.26906e-05
2.836e-05
2.68613e-05
2.64315e-05
2.63152e-05
2.62851e-05
2.62777e-05
2.6276e-05
2.62757e-05
2.62756e-05
2.62756e-05
2.62756e-05
2.62756e-05
2.62756e-05
2.62756e-05
2.62756e-05
2.62756e-05
2.62756e-05
2.62756e-05
2.62756e-05
2.62756e-05
2.62756e-05
2.62756e-05
6.05716e-05
5.18652e-05
5.04254e-05
5.07639e-05
5.16645e-05
5.27556e-05
5.40259e-05
5.54183e-05
5.68231e-05
5.81807e-05
5.94098e-05
6.0688e-05
6.19831e-05
6.33928e-05
6.48013e-05
6.62129e-05
6.74623e-05
6.85036e-05
6.97848e-05
7.15822e-05
7.3992e-05
7.54058e-05
7.2141e-05
6.67378e-05
5.86097e-05
4.93513e-05
3.98331e-05
3.2407e-05
2.82631e-05
2.68346e-05
2.64248e-05
2.63136e-05
2.62848e-05
2.62777e-05
2.6276e-05
2.62757e-05
2.62756e-05
2.62756e-05
2.62756e-05
2.62756e-05
2.62756e-05
2.62756e-05
2.62756e-05
2.62756e-05
2.62756e-05
2.62756e-05
2.62756e-05
2.62756e-05
2.62756e-05
2.62756e-05
8.09985e-05
6.37944e-05
5.88661e-05
5.75587e-05
5.74813e-05
5.81071e-05
5.90015e-05
6.00503e-05
6.11973e-05
6.22529e-05
6.32581e-05
6.43238e-05
6.53956e-05
6.64799e-05
6.75551e-05
6.87772e-05
6.98355e-05
7.07287e-05
7.1769e-05
7.30469e-05
7.5179e-05
7.52977e-05
7.157e-05
6.60017e-05
5.78775e-05
4.86569e-05
3.93011e-05
3.20817e-05
2.81506e-05
2.68043e-05
2.64173e-05
2.63118e-05
2.62843e-05
2.62776e-05
2.6276e-05
2.62757e-05
2.62756e-05
2.62756e-05
2.62756e-05
2.62756e-05
2.62756e-05
2.62756e-05
2.62756e-05
2.62756e-05
2.62756e-05
2.62756e-05
2.62756e-05
2.62756e-05
2.62756e-05
2.62756e-05
8.98788e-05
7.03193e-05
6.43154e-05
6.2769e-05
6.23921e-05
6.28939e-05
6.36595e-05
6.45455e-05
6.55074e-05
6.63156e-05
6.71262e-05
6.79919e-05
6.88463e-05
6.97089e-05
7.05688e-05
7.14157e-05
7.21764e-05
7.29046e-05
7.3666e-05
7.44704e-05
7.60224e-05
7.49763e-05
7.09399e-05
6.51276e-05
5.70203e-05
4.78578e-05
3.87107e-05
3.17265e-05
2.80283e-05
2.67718e-05
2.64092e-05
2.63099e-05
2.62839e-05
2.62775e-05
2.6276e-05
2.62757e-05
2.62756e-05
2.62756e-05
2.62756e-05
2.62756e-05
2.62756e-05
2.62756e-05
2.62756e-05
2.62756e-05
2.62756e-05
2.62756e-05
2.62756e-05
2.62756e-05
2.62756e-05
2.62756e-05
8.91287e-05
7.03568e-05
6.53662e-05
6.51364e-05
6.57536e-05
6.64551e-05
6.74281e-05
6.83705e-05
6.92586e-05
6.99673e-05
7.06688e-05
7.13857e-05
7.20901e-05
7.27853e-05
7.34574e-05
7.4086e-05
7.45268e-05
7.49624e-05
7.55119e-05
7.63039e-05
7.62326e-05
7.44109e-05
7.03479e-05
6.41404e-05
5.60664e-05
4.69643e-05
3.80795e-05
3.1354e-05
2.79019e-05
2.67383e-05
2.64009e-05
2.63079e-05
2.62834e-05
2.62774e-05
2.6276e-05
2.62756e-05
2.62756e-05
2.62756e-05
2.62756e-05
2.62756e-05
2.62756e-05
2.62756e-05
2.62756e-05
2.62756e-05
2.62756e-05
2.62756e-05
2.62756e-05
2.62756e-05
2.62756e-05
2.62756e-05
7.48607e-05
6.1135e-05
6.01865e-05
6.36878e-05
6.62962e-05
6.82628e-05
6.97582e-05
7.10686e-05
7.21978e-05
7.31653e-05
7.39947e-05
7.47431e-05
7.54198e-05
7.60428e-05
7.66019e-05
7.70871e-05
7.73193e-05
7.7462e-05
7.75576e-05
7.72619e-05
7.62361e-05
7.37538e-05
6.95728e-05
6.30384e-05
5.50191e-05
4.60223e-05
3.73949e-05
3.09772e-05
2.77761e-05
2.6705e-05
2.63926e-05
2.63059e-05
2.6283e-05
2.62773e-05
2.62759e-05
2.62756e-05
2.62756e-05
2.62756e-05
2.62756e-05
2.62756e-05
2.62756e-05
2.62756e-05
2.62756e-05
2.62756e-05
2.62756e-05
2.62756e-05
2.62756e-05
2.62756e-05
2.62756e-05
2.62756e-05
3.73662e-05
4.4833e-05
5.03978e-05
5.7531e-05
6.33724e-05
6.7325e-05
7.01059e-05
7.21527e-05
7.35617e-05
7.47387e-05
7.5878e-05
7.68248e-05
7.75796e-05
7.82088e-05
7.8706e-05
7.90183e-05
7.90467e-05
7.8896e-05
7.84767e-05
7.7294e-05
7.59376e-05
7.29546e-05
6.84827e-05
6.18036e-05
5.38688e-05
4.50216e-05
3.66686e-05
3.05965e-05
2.76512e-05
2.66719e-05
2.63843e-05
2.63039e-05
2.62825e-05
2.62772e-05
2.62759e-05
2.62756e-05
2.62756e-05
2.62756e-05
2.62756e-05
2.62756e-05
2.62756e-05
2.62756e-05
2.62756e-05
2.62756e-05
2.62756e-05
2.62756e-05
2.62756e-05
2.62756e-05
2.62756e-05
2.62756e-05
2.96255e-05
3.53303e-05
4.06143e-05
4.78713e-05
5.58727e-05
6.26152e-05
6.75107e-05
7.07577e-05
7.31402e-05
7.4876e-05
7.61277e-05
7.71337e-05
7.79187e-05
7.85208e-05
7.8953e-05
7.91483e-05
7.91424e-05
7.88479e-05
7.82499e-05
7.72486e-05
7.52267e-05
7.18936e-05
6.70839e-05
6.03715e-05
5.2532e-05
4.38644e-05
3.58728e-05
3.01887e-05
2.75194e-05
2.66369e-05
2.63754e-05
2.63017e-05
2.6282e-05
2.62771e-05
2.62759e-05
2.62756e-05
2.62756e-05
2.62756e-05
2.62756e-05
2.62756e-05
2.62756e-05
2.62756e-05
2.62756e-05
2.62756e-05
2.62756e-05
2.62756e-05
2.62756e-05
2.62756e-05
2.62756e-05
2.62756e-05
2.76548e-05
3.09845e-05
3.45821e-05
3.95712e-05
4.6362e-05
5.38403e-05
6.07934e-05
6.61089e-05
6.99136e-05
7.25318e-05
7.45232e-05
7.60447e-05
7.72066e-05
7.80769e-05
7.86671e-05
7.89644e-05
7.89312e-05
7.84852e-05
7.77831e-05
7.6501e-05
7.39718e-05
7.04682e-05
6.52618e-05
5.86442e-05
5.08756e-05
4.25002e-05
3.49606e-05
2.97316e-05
2.73733e-05
2.65976e-05
2.63654e-05
2.62993e-05
2.62815e-05
2.62769e-05
2.62759e-05
2.62756e-05
2.62756e-05
2.62756e-05
2.62756e-05
2.62756e-05
2.62756e-05
2.62756e-05
2.62756e-05
2.62756e-05
2.62756e-05
2.62756e-05
2.62756e-05
2.62756e-05
2.62756e-05
2.62756e-05
2.70191e-05
2.8984e-05
3.15126e-05
3.47599e-05
3.93389e-05
4.53152e-05
5.20061e-05
5.81857e-05
6.32969e-05
6.73517e-05
7.04375e-05
7.27903e-05
7.45682e-05
7.59161e-05
7.68682e-05
7.74185e-05
7.75171e-05
7.70844e-05
7.63719e-05
7.48368e-05
7.20847e-05
6.82292e-05
6.28959e-05
5.64329e-05
4.88134e-05
4.08494e-05
3.3917e-05
2.9212e-05
2.72118e-05
2.65534e-05
2.63538e-05
2.62964e-05
2.62808e-05
2.62768e-05
2.62758e-05
2.62756e-05
2.62756e-05
2.62756e-05
2.62756e-05
2.62756e-05
2.62756e-05
2.62756e-05
2.62756e-05
2.62756e-05
2.62756e-05
2.62756e-05
2.62756e-05
2.62756e-05
2.62756e-05
2.62756e-05
2.67498e-05
2.8026e-05
2.97305e-05
3.21141e-05
3.52902e-05
3.96611e-05
4.50398e-05
5.07285e-05
5.60116e-05
6.05644e-05
6.43227e-05
6.73704e-05
6.98602e-05
7.18432e-05
7.33243e-05
7.42884e-05
7.46759e-05
7.44203e-05
7.37773e-05
7.21945e-05
6.92323e-05
6.52105e-05
6.00199e-05
5.36318e-05
4.63041e-05
3.89109e-05
3.26933e-05
2.86491e-05
2.70382e-05
2.65049e-05
2.63409e-05
2.62931e-05
2.628e-05
2.62766e-05
2.62758e-05
2.62756e-05
2.62756e-05
2.62756e-05
2.62756e-05
2.62756e-05
2.62756e-05
2.62756e-05
2.62756e-05
2.62756e-05
2.62756e-05
2.62756e-05
2.62756e-05
2.62756e-05
2.62756e-05
2.62756e-05
2.66048e-05
2.74887e-05
2.86936e-05
3.04109e-05
3.2885e-05
3.62179e-05
4.04186e-05
4.51173e-05
4.98242e-05
5.42284e-05
5.81564e-05
6.1554e-05
6.44379e-05
6.67886e-05
6.86089e-05
6.98574e-05
7.05279e-05
7.05038e-05
6.99204e-05
6.83003e-05
6.53697e-05
6.14706e-05
5.63705e-05
5.01737e-05
4.33345e-05
3.66595e-05
3.12414e-05
2.80778e-05
2.68612e-05
2.64543e-05
2.63271e-05
2.62895e-05
2.62791e-05
2.62764e-05
2.62758e-05
2.62756e-05
2.62756e-05
2.62756e-05
2.62756e-05
2.62756e-05
2.62756e-05
2.62756e-05
2.62756e-05
2.62756e-05
2.62756e-05
2.62756e-05
2.62756e-05
2.62756e-05
2.62756e-05
2.62756e-05
2.65124e-05
2.71452e-05
2.80168e-05
2.92731e-05
3.11221e-05
3.37407e-05
3.70947e-05
4.09495e-05
4.49663e-05
4.88878e-05
5.25513e-05
5.58608e-05
5.87844e-05
6.12624e-05
6.32487e-05
6.46937e-05
6.55075e-05
6.55823e-05
6.50468e-05
6.34657e-05
6.06524e-05
5.67938e-05
5.18802e-05
4.61095e-05
3.99654e-05
3.42394e-05
2.97833e-05
2.75417e-05
2.66931e-05
2.64049e-05
2.63133e-05
2.62859e-05
2.62782e-05
2.62762e-05
2.62757e-05
2.62756e-05
2.62756e-05
2.62756e-05
2.62756e-05
2.62756e-05
2.62756e-05
2.62756e-05
2.62756e-05
2.62756e-05
2.62756e-05
2.62756e-05
2.62756e-05
2.62756e-05
2.62756e-05
2.62756e-05
2.64463e-05
2.68984e-05
2.75192e-05
2.84116e-05
2.97562e-05
3.18112e-05
3.4509e-05
3.7648e-05
4.09585e-05
4.4277e-05
4.74727e-05
5.04556e-05
5.31474e-05
5.5477e-05
5.73825e-05
5.8778e-05
5.95771e-05
5.9663e-05
5.91199e-05
5.75377e-05
5.48618e-05
5.12326e-05
4.67128e-05
4.15945e-05
3.63498e-05
3.16863e-05
2.85079e-05
2.7085e-05
2.65472e-05
2.6361e-05
2.63008e-05
2.62825e-05
2.62774e-05
2.6276e-05
2.62757e-05
2.62756e-05
2.62756e-05
2.62756e-05
2.62756e-05
2.62756e-05
2.62756e-05
2.62756e-05
2.62756e-05
2.62756e-05
2.62756e-05
2.62756e-05
2.62756e-05
2.62756e-05
2.62756e-05
2.62756e-05
2.63962e-05
2.67134e-05
2.71489e-05
2.77762e-05
2.87239e-05
3.01674e-05
3.22356e-05
3.46739e-05
3.7316e-05
4.00397e-05
4.27144e-05
4.52489e-05
4.75443e-05
4.95477e-05
5.11796e-05
5.23649e-05
5.29973e-05
5.29913e-05
5.23916e-05
5.08195e-05
4.83589e-05
4.50995e-05
4.11926e-05
3.69352e-05
3.28221e-05
2.93784e-05
2.75345e-05
2.6738e-05
2.64334e-05
2.63259e-05
2.62906e-05
2.62797e-05
2.62767e-05
2.62758e-05
2.62756e-05
2.62756e-05
2.62756e-05
2.62756e-05
2.62756e-05
2.62756e-05
2.62756e-05
2.62756e-05
2.62756e-05
2.62756e-05
2.62756e-05
2.62756e-05
2.62756e-05
2.62756e-05
2.62756e-05
2.62756e-05
2.63592e-05
2.65764e-05
2.68697e-05
2.72803e-05
2.78834e-05
2.8794e-05
3.01339e-05
3.19331e-05
3.39851e-05
3.60374e-05
3.81377e-05
4.01303e-05
4.19634e-05
4.35644e-05
4.48478e-05
4.5726e-05
4.6108e-05
4.59779e-05
4.52845e-05
4.37998e-05
4.16655e-05
3.89613e-05
3.57923e-05
3.25413e-05
2.96134e-05
2.77968e-05
2.68936e-05
2.65062e-05
2.63554e-05
2.63013e-05
2.62833e-05
2.62777e-05
2.62761e-05
2.62757e-05
2.62756e-05
2.62756e-05
2.62756e-05
2.62756e-05
2.62756e-05
2.62756e-05
2.62756e-05
2.62756e-05
2.62756e-05
2.62756e-05
2.62756e-05
2.62756e-05
2.62756e-05
2.62756e-05
2.62756e-05
2.62756e-05
2.63296e-05
2.64676e-05
2.66498e-05
2.68986e-05
2.7251e-05
2.77656e-05
2.85178e-05
2.95644e-05
3.08934e-05
3.24233e-05
3.3954e-05
3.53578e-05
3.66597e-05
3.77846e-05
3.86576e-05
3.91904e-05
3.93407e-05
3.91207e-05
3.83983e-05
3.70953e-05
3.53625e-05
3.33495e-05
3.10144e-05
2.90319e-05
2.76714e-05
2.69048e-05
2.65336e-05
2.63729e-05
2.63096e-05
2.62866e-05
2.62789e-05
2.62765e-05
2.62758e-05
2.62756e-05
2.62756e-05
2.62756e-05
2.62756e-05
2.62756e-05
2.62756e-05
2.62756e-05
2.62756e-05
2.62756e-05
2.62756e-05
2.62756e-05
2.62756e-05
2.62756e-05
2.62756e-05
2.62756e-05
2.62756e-05
2.62756e-05
2.63074e-05
2.63881e-05
2.64928e-05
2.66309e-05
2.68166e-05
2.70717e-05
2.74271e-05
2.79181e-05
2.85667e-05
2.93606e-05
3.02486e-05
3.11546e-05
3.19982e-05
3.27055e-05
3.32122e-05
3.34435e-05
3.34187e-05
3.31213e-05
3.24135e-05
3.14153e-05
3.02359e-05
2.90373e-05
2.79952e-05
2.72288e-05
2.67492e-05
2.64888e-05
2.63633e-05
2.63088e-05
2.62872e-05
2.62793e-05
2.62767e-05
2.62759e-05
2.62757e-05
2.62756e-05
2.62756e-05
2.62756e-05
2.62756e-05
2.62756e-05
2.62756e-05
2.62756e-05
2.62756e-05
2.62756e-05
2.62756e-05
2.62756e-05
2.62756e-05
2.62756e-05
2.62756e-05
2.62756e-05
2.62756e-05
2.62756e-05
2.62911e-05
2.6332e-05
2.63855e-05
2.64542e-05
2.65417e-05
2.66534e-05
2.67971e-05
2.69815e-05
2.72162e-05
2.75056e-05
2.78414e-05
2.81964e-05
2.85312e-05
2.88032e-05
2.89708e-05
2.90092e-05
2.89383e-05
2.87131e-05
2.83495e-05
2.79135e-05
2.74635e-05
2.70599e-05
2.67442e-05
2.65287e-05
2.63995e-05
2.63307e-05
2.62981e-05
2.6284e-05
2.62785e-05
2.62765e-05
2.62759e-05
2.62756e-05
2.62756e-05
2.62756e-05
2.62756e-05
2.62756e-05
2.62756e-05
2.62756e-05
2.62756e-05
2.62756e-05
2.62756e-05
2.62756e-05
2.62756e-05
2.62756e-05
2.62756e-05
2.62756e-05
2.62756e-05
2.62756e-05
2.62756e-05
2.62756e-05
2.628e-05
2.6295e-05
2.63175e-05
2.63458e-05
2.63795e-05
2.64189e-05
2.64648e-05
2.65184e-05
2.65813e-05
2.66538e-05
2.67347e-05
2.68179e-05
2.6893e-05
2.69475e-05
2.69699e-05
2.69616e-05
2.69228e-05
2.68469e-05
2.67407e-05
2.66248e-05
2.65165e-05
2.64274e-05
2.63626e-05
2.63209e-05
2.6297e-05
2.62849e-05
2.62793e-05
2.62769e-05
2.6276e-05
2.62757e-05
2.62756e-05
2.62756e-05
2.62756e-05
2.62756e-05
2.62756e-05
2.62756e-05
2.62756e-05
2.62756e-05
2.62756e-05
2.62756e-05
2.62756e-05
2.62756e-05
2.62756e-05
2.62756e-05
2.62756e-05
2.62756e-05
2.62756e-05
2.62756e-05
2.62756e-05
2.62756e-05
2.62757e-05
2.62788e-05
2.62839e-05
2.62901e-05
2.62964e-05
2.63033e-05
2.63105e-05
2.63182e-05
2.63263e-05
2.63347e-05
2.63433e-05
2.63514e-05
2.63579e-05
2.63615e-05
2.63612e-05
2.63568e-05
2.63486e-05
2.6337e-05
2.63236e-05
2.63103e-05
2.62987e-05
2.62897e-05
2.62835e-05
2.62796e-05
2.62775e-05
2.62764e-05
2.62759e-05
2.62757e-05
2.62756e-05
2.62756e-05
2.62756e-05
2.62756e-05
2.62756e-05
2.62756e-05
2.62756e-05
2.62756e-05
2.62756e-05
2.62756e-05
2.62756e-05
2.62756e-05
2.62756e-05
2.62756e-05
2.62756e-05
2.62756e-05
2.62756e-05
2.62756e-05
2.62756e-05
2.62756e-05
2.62756e-05
2.62756e-05
)
;

boundaryField
{
    AXIS
    {
        type            empty;
    }
    OUTLET
    {
        type            calculated;
        value           uniform 2.62756e-05;
    }
    COFLOW
    {
        type            calculated;
        value           uniform 2.62756e-05;
    }
    PILOT
    {
        type            calculated;
        value           uniform 0.000100126;
    }
    FUEL
    {
        type            calculated;
        value           uniform 2.61542e-05;
    }
    WALL
    {
        type            calculated;
        value           nonuniform List<scalar> 
50
(
2.62757e-05
2.62788e-05
2.62839e-05
2.62901e-05
2.62964e-05
2.63033e-05
2.63105e-05
2.63182e-05
2.63263e-05
2.63347e-05
2.63433e-05
2.63514e-05
2.63579e-05
2.63615e-05
2.63612e-05
2.63568e-05
2.63486e-05
2.6337e-05
2.63236e-05
2.63103e-05
2.62987e-05
2.62897e-05
2.62835e-05
2.62796e-05
2.62775e-05
2.62764e-05
2.62759e-05
2.62757e-05
2.62756e-05
2.62756e-05
2.62756e-05
2.62756e-05
2.62756e-05
2.62756e-05
2.62756e-05
2.62756e-05
2.62756e-05
2.62756e-05
2.62756e-05
2.62756e-05
2.62756e-05
2.62756e-05
2.62756e-05
2.62756e-05
2.62756e-05
2.62756e-05
2.62756e-05
2.62756e-05
2.62756e-05
2.62756e-05
)
;
    }
    front
    {
        type            wedge;
    }
    back
    {
        type            wedge;
    }
}


// ************************************************************************* //
