/*--------------------------------*- C++ -*----------------------------------*\
| =========                 |                                                 |
| \\      /  F ield         | OpenFOAM: The Open Source CFD Toolbox           |
|  \\    /   O peration     | Version:  2.4.x                                 |
|   \\  /    A nd           | Web:      www.OpenFOAM.org                      |
|    \\/     M anipulation  |                                                 |
\*---------------------------------------------------------------------------*/
FoamFile
{
    version     2.0;
    format      ascii;
    class       volScalarField;
    location    "0.03";
    object      thermo:mu;
}
// * * * * * * * * * * * * * * * * * * * * * * * * * * * * * * * * * * * * * //

dimensions      [1 -1 -1 0 0 0 0];

internalField   nonuniform List<scalar> 
1250
(
1.88877e-05
2.08055e-05
2.27397e-05
2.45049e-05
2.61551e-05
2.76865e-05
2.91195e-05
3.04663e-05
3.17905e-05
3.32959e-05
3.47576e-05
3.61499e-05
3.75324e-05
3.89121e-05
4.02604e-05
4.15988e-05
4.29217e-05
4.39837e-05
4.50939e-05
4.70146e-05
4.98357e-05
5.30484e-05
5.19259e-05
4.78714e-05
4.22115e-05
3.54736e-05
2.85091e-05
2.29467e-05
1.97164e-05
1.85824e-05
1.82572e-05
1.81698e-05
1.81473e-05
1.81418e-05
1.81405e-05
1.81403e-05
1.81402e-05
1.81402e-05
1.81402e-05
1.81402e-05
1.81402e-05
1.81402e-05
1.81402e-05
1.81402e-05
1.81402e-05
1.81402e-05
1.81402e-05
1.81402e-05
1.81402e-05
1.81402e-05
1.90078e-05
2.11337e-05
2.31281e-05
2.49211e-05
2.65688e-05
2.80762e-05
2.94714e-05
3.07756e-05
3.22403e-05
3.37387e-05
3.51812e-05
3.65547e-05
3.79258e-05
3.92776e-05
4.06066e-05
4.19329e-05
4.32289e-05
4.42702e-05
4.5369e-05
4.72644e-05
4.99857e-05
5.31025e-05
5.18585e-05
4.78272e-05
4.21483e-05
3.54164e-05
2.84641e-05
2.29235e-05
1.97072e-05
1.85798e-05
1.82566e-05
1.81697e-05
1.81473e-05
1.81418e-05
1.81405e-05
1.81403e-05
1.81402e-05
1.81402e-05
1.81402e-05
1.81402e-05
1.81402e-05
1.81402e-05
1.81402e-05
1.81402e-05
1.81402e-05
1.81402e-05
1.81402e-05
1.81402e-05
1.81402e-05
1.81402e-05
1.93828e-05
2.20391e-05
2.41578e-05
2.59775e-05
2.75681e-05
2.89525e-05
3.03165e-05
3.18087e-05
3.32878e-05
3.47435e-05
3.61388e-05
3.7469e-05
3.87937e-05
4.00905e-05
4.1385e-05
4.26714e-05
4.39e-05
4.4901e-05
4.59741e-05
4.78277e-05
5.0338e-05
5.32049e-05
5.16935e-05
4.77141e-05
4.19864e-05
3.52707e-05
2.83476e-05
2.28617e-05
1.96821e-05
1.85729e-05
1.82548e-05
1.81693e-05
1.81472e-05
1.81418e-05
1.81405e-05
1.81403e-05
1.81402e-05
1.81402e-05
1.81402e-05
1.81402e-05
1.81402e-05
1.81402e-05
1.81402e-05
1.81402e-05
1.81402e-05
1.81402e-05
1.81402e-05
1.81402e-05
1.81402e-05
1.81402e-05
2.04971e-05
2.40198e-05
2.61999e-05
2.7793e-05
2.92139e-05
3.07062e-05
3.2146e-05
3.3543e-05
3.49349e-05
3.63142e-05
3.76124e-05
3.88591e-05
4.01034e-05
4.13387e-05
4.25573e-05
4.37686e-05
4.49068e-05
4.58394e-05
4.69026e-05
4.86487e-05
5.08413e-05
5.33126e-05
5.14402e-05
4.7519e-05
4.17174e-05
3.50325e-05
2.81568e-05
2.27544e-05
1.96408e-05
1.85614e-05
1.8252e-05
1.81686e-05
1.8147e-05
1.81417e-05
1.81405e-05
1.81403e-05
1.81402e-05
1.81402e-05
1.81402e-05
1.81402e-05
1.81402e-05
1.81402e-05
1.81402e-05
1.81402e-05
1.81402e-05
1.81402e-05
1.81402e-05
1.81402e-05
1.81402e-05
1.81402e-05
2.45941e-05
2.85154e-05
2.9664e-05
3.10096e-05
3.22482e-05
3.34272e-05
3.46398e-05
3.58783e-05
3.71322e-05
3.83946e-05
3.95441e-05
4.06845e-05
4.18183e-05
4.29383e-05
4.40563e-05
4.51851e-05
4.62114e-05
4.70596e-05
4.80683e-05
4.96729e-05
5.14742e-05
5.33485e-05
5.11289e-05
4.72017e-05
4.13486e-05
3.47008e-05
2.78973e-05
2.25932e-05
1.95853e-05
1.85461e-05
1.82482e-05
1.81677e-05
1.81468e-05
1.81417e-05
1.81405e-05
1.81403e-05
1.81402e-05
1.81402e-05
1.81402e-05
1.81402e-05
1.81402e-05
1.81402e-05
1.81402e-05
1.81402e-05
1.81402e-05
1.81402e-05
1.81402e-05
1.81402e-05
1.81402e-05
1.81402e-05
4.28007e-05
3.64988e-05
3.54505e-05
3.56921e-05
3.63419e-05
3.7131e-05
3.80508e-05
3.90597e-05
4.00774e-05
4.106e-05
4.19482e-05
4.28722e-05
4.38086e-05
4.4827e-05
4.58422e-05
4.6858e-05
4.77554e-05
4.85012e-05
4.94165e-05
5.0689e-05
5.23587e-05
5.32404e-05
5.07567e-05
4.67755e-05
4.09004e-05
3.42825e-05
2.75766e-05
2.23959e-05
1.95181e-05
1.85276e-05
1.82436e-05
1.81666e-05
1.81466e-05
1.81416e-05
1.81405e-05
1.81403e-05
1.81402e-05
1.81402e-05
1.81402e-05
1.81402e-05
1.81402e-05
1.81402e-05
1.81402e-05
1.81402e-05
1.81402e-05
1.81402e-05
1.81402e-05
1.81402e-05
1.81402e-05
1.81402e-05
5.7342e-05
4.50589e-05
4.15058e-05
4.05667e-05
4.05159e-05
4.09738e-05
4.16255e-05
4.23884e-05
4.32217e-05
4.39875e-05
4.47155e-05
4.54857e-05
4.62584e-05
4.70395e-05
4.78132e-05
4.86915e-05
4.94504e-05
5.00883e-05
5.08267e-05
5.17189e-05
5.31778e-05
5.31336e-05
5.03281e-05
4.62399e-05
4.03731e-05
3.37901e-05
2.72042e-05
2.21698e-05
1.94401e-05
1.85066e-05
1.82384e-05
1.81653e-05
1.81463e-05
1.81416e-05
1.81405e-05
1.81403e-05
1.81402e-05
1.81402e-05
1.81402e-05
1.81402e-05
1.81402e-05
1.81402e-05
1.81402e-05
1.81402e-05
1.81402e-05
1.81402e-05
1.81402e-05
1.81402e-05
1.81402e-05
1.81402e-05
6.35131e-05
4.96153e-05
4.53441e-05
4.4259e-05
4.40079e-05
4.43865e-05
4.49526e-05
4.56019e-05
4.63032e-05
4.68906e-05
4.74781e-05
4.81037e-05
4.87202e-05
4.93415e-05
4.99598e-05
5.0568e-05
5.11121e-05
5.16299e-05
5.21653e-05
5.27111e-05
5.37426e-05
5.28712e-05
4.98564e-05
4.56054e-05
3.97567e-05
3.32241e-05
2.67912e-05
2.19228e-05
1.93553e-05
1.84841e-05
1.82328e-05
1.8164e-05
1.8146e-05
1.81415e-05
1.81405e-05
1.81403e-05
1.81402e-05
1.81402e-05
1.81402e-05
1.81402e-05
1.81402e-05
1.81402e-05
1.81402e-05
1.81402e-05
1.81402e-05
1.81402e-05
1.81402e-05
1.81402e-05
1.81402e-05
1.81402e-05
6.29103e-05
4.94693e-05
4.59614e-05
4.58553e-05
4.6343e-05
4.68798e-05
4.7605e-05
4.83023e-05
4.89561e-05
4.94759e-05
4.9988e-05
5.05087e-05
5.10187e-05
5.15205e-05
5.20046e-05
5.24561e-05
5.27704e-05
5.30773e-05
5.34599e-05
5.39919e-05
5.38496e-05
5.24327e-05
4.94099e-05
4.48901e-05
3.90718e-05
3.25922e-05
2.63499e-05
2.16639e-05
1.92676e-05
1.84609e-05
1.8227e-05
1.81626e-05
1.81456e-05
1.81414e-05
1.81405e-05
1.81402e-05
1.81402e-05
1.81402e-05
1.81402e-05
1.81402e-05
1.81402e-05
1.81402e-05
1.81402e-05
1.81402e-05
1.81402e-05
1.81402e-05
1.81402e-05
1.81402e-05
1.81402e-05
1.81402e-05
5.25641e-05
4.27291e-05
4.21079e-05
4.4691e-05
4.66233e-05
4.80845e-05
4.91972e-05
5.01689e-05
5.10033e-05
5.17162e-05
5.23262e-05
5.28742e-05
5.33683e-05
5.38217e-05
5.42273e-05
5.45773e-05
5.47424e-05
5.48384e-05
5.48885e-05
5.46279e-05
5.381e-05
5.19287e-05
4.88332e-05
4.40924e-05
3.8321e-05
3.19268e-05
2.58716e-05
2.14021e-05
1.91804e-05
1.84378e-05
1.82213e-05
1.81612e-05
1.81453e-05
1.81414e-05
1.81405e-05
1.81402e-05
1.81402e-05
1.81402e-05
1.81402e-05
1.81402e-05
1.81402e-05
1.81402e-05
1.81402e-05
1.81402e-05
1.81402e-05
1.81402e-05
1.81402e-05
1.81402e-05
1.81402e-05
1.81402e-05
2.58513e-05
3.10911e-05
3.5045e-05
4.01721e-05
4.44137e-05
4.73041e-05
4.9347e-05
5.08557e-05
5.1898e-05
5.27664e-05
5.36013e-05
5.42952e-05
5.48487e-05
5.53093e-05
5.56731e-05
5.59012e-05
5.59216e-05
5.58087e-05
5.54889e-05
5.45981e-05
5.35519e-05
5.13234e-05
4.80345e-05
4.31997e-05
3.74981e-05
3.1221e-05
2.53645e-05
2.11377e-05
1.90938e-05
1.84149e-05
1.82155e-05
1.81598e-05
1.8145e-05
1.81413e-05
1.81404e-05
1.81402e-05
1.81402e-05
1.81402e-05
1.81402e-05
1.81402e-05
1.81402e-05
1.81402e-05
1.81402e-05
1.81402e-05
1.81402e-05
1.81402e-05
1.81402e-05
1.81402e-05
1.81402e-05
1.81402e-05
2.04634e-05
2.44318e-05
2.81275e-05
3.3246e-05
3.89595e-05
4.3826e-05
4.73766e-05
4.97509e-05
5.14962e-05
5.27714e-05
5.36932e-05
5.4434e-05
5.50124e-05
5.54567e-05
5.57767e-05
5.5924e-05
5.59226e-05
5.57084e-05
5.52655e-05
5.45102e-05
5.29955e-05
5.05301e-05
4.70152e-05
4.21658e-05
3.65438e-05
3.0406e-05
2.48094e-05
2.08544e-05
1.90023e-05
1.83906e-05
1.82094e-05
1.81583e-05
1.81447e-05
1.81412e-05
1.81404e-05
1.81402e-05
1.81402e-05
1.81402e-05
1.81402e-05
1.81402e-05
1.81402e-05
1.81402e-05
1.81402e-05
1.81402e-05
1.81402e-05
1.81402e-05
1.81402e-05
1.81402e-05
1.81402e-05
1.81402e-05
1.90962e-05
2.14074e-05
2.39107e-05
2.73958e-05
3.21726e-05
3.74901e-05
4.24852e-05
4.63225e-05
4.90794e-05
5.09898e-05
5.24446e-05
5.35588e-05
5.44118e-05
5.50529e-05
5.5491e-05
5.57158e-05
5.56987e-05
5.53782e-05
5.48643e-05
5.39142e-05
5.20476e-05
4.94727e-05
4.56939e-05
4.09209e-05
3.53643e-05
2.94469e-05
2.41735e-05
2.05371e-05
1.8901e-05
1.83634e-05
1.82024e-05
1.81566e-05
1.81443e-05
1.81412e-05
1.81404e-05
1.81402e-05
1.81402e-05
1.81402e-05
1.81402e-05
1.81402e-05
1.81402e-05
1.81402e-05
1.81402e-05
1.81402e-05
1.81402e-05
1.81402e-05
1.81402e-05
1.81402e-05
1.81402e-05
1.81402e-05
1.86555e-05
2.00183e-05
2.17745e-05
2.40344e-05
2.72322e-05
3.14309e-05
3.61735e-05
4.05956e-05
4.42747e-05
4.71975e-05
4.94294e-05
5.11373e-05
5.24332e-05
5.34192e-05
5.41195e-05
5.45291e-05
5.461e-05
5.43019e-05
5.37844e-05
5.26609e-05
5.0646e-05
4.78387e-05
4.39838e-05
3.9332e-05
3.39004e-05
2.82885e-05
2.34466e-05
2.01764e-05
1.87891e-05
1.83327e-05
1.81944e-05
1.81546e-05
1.81438e-05
1.8141e-05
1.81404e-05
1.81402e-05
1.81402e-05
1.81402e-05
1.81402e-05
1.81402e-05
1.81402e-05
1.81402e-05
1.81402e-05
1.81402e-05
1.81402e-05
1.81402e-05
1.81402e-05
1.81402e-05
1.81402e-05
1.81402e-05
1.84688e-05
1.93537e-05
2.05365e-05
2.21925e-05
2.44037e-05
2.7457e-05
3.12348e-05
3.52605e-05
3.90292e-05
4.22967e-05
4.50018e-05
4.71977e-05
4.89968e-05
5.04342e-05
5.15117e-05
5.22171e-05
5.25056e-05
5.23263e-05
5.18612e-05
5.07103e-05
4.85604e-05
4.56513e-05
4.19084e-05
3.73274e-05
3.21254e-05
2.69311e-05
2.2595e-05
1.97859e-05
1.86688e-05
1.82991e-05
1.81855e-05
1.81523e-05
1.81433e-05
1.81409e-05
1.81404e-05
1.81402e-05
1.81402e-05
1.81402e-05
1.81402e-05
1.81402e-05
1.81402e-05
1.81402e-05
1.81402e-05
1.81402e-05
1.81402e-05
1.81402e-05
1.81402e-05
1.81402e-05
1.81402e-05
1.81402e-05
1.83684e-05
1.89811e-05
1.98168e-05
2.10089e-05
2.27286e-05
2.50503e-05
2.79869e-05
3.12883e-05
3.46167e-05
3.77517e-05
4.05635e-05
4.30046e-05
4.50798e-05
4.67724e-05
4.8087e-05
4.89921e-05
4.94806e-05
4.94667e-05
4.90466e-05
4.78766e-05
4.5762e-05
4.29512e-05
3.92857e-05
3.48651e-05
3.00331e-05
2.53582e-05
2.15856e-05
1.93896e-05
1.8546e-05
1.8264e-05
1.81759e-05
1.81499e-05
1.81427e-05
1.81408e-05
1.81403e-05
1.81402e-05
1.81402e-05
1.81402e-05
1.81402e-05
1.81402e-05
1.81402e-05
1.81402e-05
1.81402e-05
1.81402e-05
1.81402e-05
1.81402e-05
1.81402e-05
1.81402e-05
1.81402e-05
1.81402e-05
1.83043e-05
1.87429e-05
1.93473e-05
2.02189e-05
2.15029e-05
2.33239e-05
2.5662e-05
2.83586e-05
3.11814e-05
3.3952e-05
3.65545e-05
3.89173e-05
4.10127e-05
4.27934e-05
4.42228e-05
4.52634e-05
4.58502e-05
4.59057e-05
4.55214e-05
4.43844e-05
4.23596e-05
3.95882e-05
3.60781e-05
3.19879e-05
2.76691e-05
2.36711e-05
2.0573e-05
1.90178e-05
1.84296e-05
1.82298e-05
1.81663e-05
1.81473e-05
1.8142e-05
1.81406e-05
1.81403e-05
1.81402e-05
1.81402e-05
1.81402e-05
1.81402e-05
1.81402e-05
1.81402e-05
1.81402e-05
1.81402e-05
1.81402e-05
1.81402e-05
1.81402e-05
1.81402e-05
1.81402e-05
1.81402e-05
1.81402e-05
1.82585e-05
1.85718e-05
1.90022e-05
1.96211e-05
2.05542e-05
2.19817e-05
2.38588e-05
2.60483e-05
2.83646e-05
3.06956e-05
3.295e-05
3.50635e-05
3.69788e-05
3.86422e-05
4.00067e-05
4.10081e-05
4.15825e-05
4.16448e-05
4.12551e-05
4.01201e-05
3.82044e-05
3.56169e-05
3.24136e-05
2.88109e-05
2.51421e-05
2.18949e-05
1.96879e-05
1.87012e-05
1.83284e-05
1.81994e-05
1.81576e-05
1.8145e-05
1.81414e-05
1.81405e-05
1.81403e-05
1.81402e-05
1.81402e-05
1.81402e-05
1.81402e-05
1.81402e-05
1.81402e-05
1.81402e-05
1.81402e-05
1.81402e-05
1.81402e-05
1.81402e-05
1.81402e-05
1.81402e-05
1.81402e-05
1.81402e-05
1.82238e-05
1.84436e-05
1.87455e-05
1.91804e-05
1.98378e-05
2.08396e-05
2.22767e-05
2.39737e-05
2.58163e-05
2.77208e-05
2.95967e-05
3.138e-05
3.30004e-05
3.44191e-05
3.55778e-05
3.64213e-05
3.6872e-05
3.68679e-05
3.64408e-05
3.53227e-05
3.35775e-05
3.12752e-05
2.85289e-05
2.55505e-05
2.26846e-05
2.02919e-05
1.90128e-05
1.84606e-05
1.82496e-05
1.8175e-05
1.81506e-05
1.81431e-05
1.81409e-05
1.81404e-05
1.81402e-05
1.81402e-05
1.81402e-05
1.81402e-05
1.81402e-05
1.81402e-05
1.81402e-05
1.81402e-05
1.81402e-05
1.81402e-05
1.81402e-05
1.81402e-05
1.81402e-05
1.81402e-05
1.81402e-05
1.81402e-05
1.81981e-05
1.83486e-05
1.85519e-05
1.88366e-05
1.92547e-05
1.98864e-05
2.08164e-05
2.20664e-05
2.34939e-05
2.4924e-05
2.63902e-05
2.77843e-05
2.90694e-05
3.0194e-05
3.10974e-05
3.17164e-05
3.1986e-05
3.18942e-05
3.14053e-05
3.03599e-05
2.88605e-05
2.69661e-05
2.47532e-05
2.24893e-05
2.0455e-05
1.91947e-05
1.85685e-05
1.83e-05
1.81955e-05
1.8158e-05
1.81456e-05
1.81417e-05
1.81406e-05
1.81403e-05
1.81402e-05
1.81402e-05
1.81402e-05
1.81402e-05
1.81402e-05
1.81402e-05
1.81402e-05
1.81402e-05
1.81402e-05
1.81402e-05
1.81402e-05
1.81402e-05
1.81402e-05
1.81402e-05
1.81402e-05
1.81402e-05
1.81777e-05
1.82732e-05
1.83996e-05
1.8572e-05
1.88163e-05
1.9173e-05
1.96948e-05
2.0421e-05
2.13439e-05
2.24072e-05
2.34722e-05
2.44502e-05
2.53581e-05
2.61435e-05
2.67537e-05
2.71264e-05
2.72315e-05
2.70776e-05
2.65725e-05
2.56622e-05
2.44535e-05
2.30515e-05
2.14279e-05
2.00514e-05
1.91077e-05
1.85763e-05
1.8319e-05
1.82076e-05
1.81638e-05
1.81478e-05
1.81425e-05
1.81408e-05
1.81404e-05
1.81402e-05
1.81402e-05
1.81402e-05
1.81402e-05
1.81402e-05
1.81402e-05
1.81402e-05
1.81402e-05
1.81402e-05
1.81402e-05
1.81402e-05
1.81402e-05
1.81402e-05
1.81402e-05
1.81402e-05
1.81402e-05
1.81402e-05
1.81623e-05
1.82182e-05
1.82907e-05
1.83864e-05
1.85151e-05
1.8692e-05
1.89383e-05
1.92788e-05
1.97287e-05
2.02796e-05
2.0896e-05
2.15253e-05
2.21116e-05
2.26035e-05
2.2956e-05
2.31169e-05
2.30997e-05
2.28928e-05
2.24004e-05
2.17065e-05
2.08872e-05
2.00552e-05
1.93323e-05
1.88009e-05
1.84685e-05
1.8288e-05
1.8201e-05
1.81632e-05
1.81482e-05
1.81428e-05
1.8141e-05
1.81404e-05
1.81403e-05
1.81402e-05
1.81402e-05
1.81402e-05
1.81402e-05
1.81402e-05
1.81402e-05
1.81402e-05
1.81402e-05
1.81402e-05
1.81402e-05
1.81402e-05
1.81402e-05
1.81402e-05
1.81402e-05
1.81402e-05
1.81402e-05
1.81402e-05
1.81509e-05
1.81793e-05
1.82164e-05
1.8264e-05
1.83246e-05
1.84021e-05
1.85016e-05
1.86294e-05
1.87921e-05
1.89928e-05
1.92256e-05
1.94718e-05
1.97041e-05
1.98928e-05
2.0009e-05
2.00357e-05
1.99865e-05
1.98303e-05
1.9578e-05
1.92756e-05
1.89636e-05
1.86838e-05
1.84649e-05
1.83156e-05
1.82261e-05
1.81784e-05
1.81558e-05
1.81461e-05
1.81422e-05
1.81409e-05
1.81404e-05
1.81403e-05
1.81402e-05
1.81402e-05
1.81402e-05
1.81402e-05
1.81402e-05
1.81402e-05
1.81402e-05
1.81402e-05
1.81402e-05
1.81402e-05
1.81402e-05
1.81402e-05
1.81402e-05
1.81402e-05
1.81402e-05
1.81402e-05
1.81402e-05
1.81402e-05
1.81432e-05
1.81537e-05
1.81693e-05
1.81888e-05
1.82122e-05
1.82395e-05
1.82713e-05
1.83085e-05
1.83521e-05
1.84023e-05
1.84584e-05
1.85161e-05
1.85681e-05
1.86059e-05
1.86214e-05
1.86157e-05
1.85888e-05
1.85362e-05
1.84625e-05
1.83822e-05
1.83072e-05
1.82454e-05
1.82005e-05
1.81716e-05
1.81551e-05
1.81467e-05
1.81428e-05
1.81411e-05
1.81405e-05
1.81403e-05
1.81402e-05
1.81402e-05
1.81402e-05
1.81402e-05
1.81402e-05
1.81402e-05
1.81402e-05
1.81402e-05
1.81402e-05
1.81402e-05
1.81402e-05
1.81402e-05
1.81402e-05
1.81402e-05
1.81402e-05
1.81402e-05
1.81402e-05
1.81402e-05
1.81402e-05
1.81402e-05
1.81403e-05
1.81424e-05
1.8146e-05
1.81502e-05
1.81546e-05
1.81594e-05
1.81644e-05
1.81697e-05
1.81753e-05
1.81812e-05
1.81871e-05
1.81928e-05
1.81973e-05
1.81997e-05
1.81995e-05
1.81965e-05
1.81908e-05
1.81828e-05
1.81735e-05
1.81643e-05
1.81562e-05
1.815e-05
1.81457e-05
1.8143e-05
1.81415e-05
1.81408e-05
1.81404e-05
1.81403e-05
1.81402e-05
1.81402e-05
1.81402e-05
1.81402e-05
1.81402e-05
1.81402e-05
1.81402e-05
1.81402e-05
1.81402e-05
1.81402e-05
1.81402e-05
1.81402e-05
1.81402e-05
1.81402e-05
1.81402e-05
1.81402e-05
1.81402e-05
1.81402e-05
1.81402e-05
1.81402e-05
1.81402e-05
1.81402e-05
)
;

boundaryField
{
    AXIS
    {
        type            empty;
    }
    OUTLET
    {
        type            calculated;
        value           uniform 1.81402e-05;
    }
    COFLOW
    {
        type            calculated;
        value           uniform 1.81402e-05;
    }
    PILOT
    {
        type            calculated;
        value           uniform 7.09187e-05;
    }
    FUEL
    {
        type            calculated;
        value           uniform 1.81402e-05;
    }
    WALL
    {
        type            calculated;
        value           nonuniform List<scalar> 
50
(
1.81403e-05
1.81424e-05
1.8146e-05
1.81502e-05
1.81546e-05
1.81594e-05
1.81644e-05
1.81697e-05
1.81753e-05
1.81812e-05
1.81871e-05
1.81928e-05
1.81973e-05
1.81997e-05
1.81995e-05
1.81965e-05
1.81908e-05
1.81828e-05
1.81735e-05
1.81643e-05
1.81562e-05
1.815e-05
1.81457e-05
1.8143e-05
1.81415e-05
1.81408e-05
1.81404e-05
1.81403e-05
1.81402e-05
1.81402e-05
1.81402e-05
1.81402e-05
1.81402e-05
1.81402e-05
1.81402e-05
1.81402e-05
1.81402e-05
1.81402e-05
1.81402e-05
1.81402e-05
1.81402e-05
1.81402e-05
1.81402e-05
1.81402e-05
1.81402e-05
1.81402e-05
1.81402e-05
1.81402e-05
1.81402e-05
1.81402e-05
)
;
    }
    front
    {
        type            wedge;
    }
    back
    {
        type            wedge;
    }
}


// ************************************************************************* //
