/*--------------------------------*- C++ -*----------------------------------*\
| =========                 |                                                 |
| \\      /  F ield         | OpenFOAM: The Open Source CFD Toolbox           |
|  \\    /   O peration     | Version:  2.4.x                                 |
|   \\  /    A nd           | Web:      www.OpenFOAM.org                      |
|    \\/     M anipulation  |                                                 |
\*---------------------------------------------------------------------------*/
FoamFile
{
    version     2.0;
    format      ascii;
    class       volVectorField;
    location    "0.03";
    object      U;
}
// * * * * * * * * * * * * * * * * * * * * * * * * * * * * * * * * * * * * * //

dimensions      [0 1 -1 0 0 0 0];

internalField   nonuniform List<vector> 
1250
(
(10.4551 -0.0355084 -7.957e-15)
(11.9066 0.0623461 -4.53012e-14)
(12.6195 0.128853 -8.74882e-14)
(12.9597 0.158278 -1.83674e-13)
(13.0697 0.148121 -1.27666e-13)
(13.0304 0.16737 1.78458e-14)
(12.9216 0.112266 1.23979e-13)
(12.7982 0.144557 9.12274e-14)
(12.6485 0.1054 1.87483e-13)
(12.54 0.140311 8.49852e-15)
(12.3963 0.135516 1.37411e-13)
(12.2333 0.0884284 3.15313e-13)
(12.0838 0.11848 5.04174e-13)
(11.9187 0.0790161 3.01922e-13)
(11.7451 0.107453 6.55043e-13)
(11.5563 0.0739446 1.65192e-12)
(11.3149 0.105273 5.86199e-13)
(10.9292 0.0996008 7.75353e-13)
(10.4169 0.13018 -1.7138e-12)
(9.85351 0.143233 2.77712e-11)
(9.11879 0.166586 2.97504e-12)
(8.03525 0.174068 4.20286e-13)
(6.54304 0.132732 6.51209e-13)
(5.03782 0.0818384 7.61735e-13)
(3.83999 0.0569648 1.15509e-12)
(2.96098 0.036973 8.04886e-13)
(2.36353 0.0239796 5.86298e-13)
(2.02346 0.0146675 3.82856e-13)
(1.83185 0.00975903 1.74826e-13)
(1.69944 0.00720524 -9.02803e-14)
(1.63785 0.00497473 8.16517e-13)
(1.59228 0.00369717 1.00457e-12)
(1.56281 0.00265985 2.59205e-13)
(1.54138 0.00193701 2.05504e-13)
(1.52657 0.00138983 1.18894e-12)
(1.51661 0.000994871 1.64973e-12)
(1.50999 0.000721406 -1.26321e-11)
(1.50576 0.000534061 -2.41043e-12)
(1.50305 0.000401646 2.79308e-11)
(1.50145 0.000305161 5.67217e-12)
(1.50047 0.000241176 2.73006e-12)
(1.49978 0.000214945 1.39768e-12)
(1.49919 0.00018946 1.26712e-12)
(1.49869 0.000169285 -2.53612e-11)
(1.49825 0.000150875 -4.99117e-12)
(1.49774 0.000146595 -1.63401e-12)
(1.49709 0.000118117 8.87076e-14)
(1.49638 7.46119e-05 4.30865e-13)
(1.49601 3.5855e-05 -2.09382e-12)
(1.4961 9.87974e-06 2.45987e-11)
(10.5671 -0.0965666 -2.20524e-14)
(12.0714 0.19247 -1.35223e-13)
(12.6868 0.356367 -2.56628e-13)
(12.9631 0.428737 -5.2319e-13)
(13.0287 0.463601 -2.70415e-13)
(12.9685 0.438137 1.03072e-13)
(12.8394 0.401285 2.95386e-13)
(12.6978 0.378375 2.65267e-13)
(12.5685 0.38936 4.0695e-13)
(12.4479 0.368466 -1.12504e-14)
(12.3104 0.34298 4.46287e-13)
(12.1509 0.317709 7.27905e-13)
(12.0005 0.303741 1.47559e-12)
(11.8451 0.285943 6.29162e-13)
(11.6781 0.275105 2.08508e-12)
(11.4899 0.276024 3.58978e-12)
(11.2477 0.2691 1.43856e-12)
(10.8799 0.293895 1.46446e-12)
(10.3884 0.330645 -3.12133e-12)
(9.83208 0.408495 2.44085e-11)
(9.1068 0.482151 4.77301e-12)
(8.04327 0.444283 9.96593e-13)
(6.57798 0.339312 1.86211e-12)
(5.07487 0.214072 2.16549e-12)
(3.87719 0.14978 3.29229e-12)
(2.98874 0.0957885 2.25986e-12)
(2.38184 0.062371 1.63776e-12)
(2.03723 0.0357982 1.0619e-12)
(1.84142 0.0250199 4.79865e-13)
(1.70753 0.0184859 -2.59998e-13)
(1.64569 0.0126724 2.38597e-12)
(1.59995 0.0093519 2.85279e-12)
(1.57055 0.00673115 6.8214e-13)
(1.54919 0.00488705 5.84537e-13)
(1.53451 0.00349937 3.44578e-12)
(1.52468 0.00249672 4.56162e-12)
(1.51821 0.00180232 -2.01259e-11)
(1.51414 0.00132734 -5.94762e-12)
(1.51161 0.0010039 4.66788e-11)
(1.51017 0.00078693 1.49406e-11)
(1.50936 0.000655865 6.74928e-12)
(1.50885 0.000567921 3.46721e-12)
(1.50843 0.000501812 3.34751e-12)
(1.5081 0.000436121 -2.87707e-11)
(1.50781 0.000384665 -1.01121e-11)
(1.50743 0.00034602 -4.41364e-12)
(1.50685 0.00031898 3.53846e-13)
(1.50623 0.000249302 1.27409e-12)
(1.50589 0.000118713 -6.25873e-12)
(1.50595 2.42118e-05 2.56611e-11)
(10.7125 -0.154382 -3.43012e-14)
(12.2898 0.437574 -2.74122e-13)
(12.7515 0.655253 -4.93893e-13)
(12.8994 0.728508 -1.05039e-12)
(12.8778 0.721601 -4.52078e-13)
(12.7743 0.687871 5.19595e-13)
(12.6105 0.6561 7.14197e-13)
(12.4745 0.628903 4.85128e-13)
(12.352 0.610483 7.83672e-13)
(12.2315 0.580619 -1.83254e-13)
(12.0954 0.541504 1.12382e-12)
(11.9463 0.500979 1.73956e-12)
(11.8041 0.471574 2.79111e-12)
(11.6603 0.443573 1.10176e-12)
(11.5075 0.427991 4.86841e-12)
(11.3303 0.420298 7.0478e-12)
(11.0889 0.419505 1.25796e-12)
(10.7325 0.441951 1.78775e-12)
(10.2638 0.517207 -2.85464e-12)
(9.71453 0.620622 1.81877e-11)
(8.99598 0.734269 2.81317e-12)
(7.95055 0.684811 9.30877e-13)
(6.52409 0.522478 3.25554e-12)
(5.05992 0.339584 3.61033e-12)
(3.87294 0.236878 5.57242e-12)
(2.991 0.151742 3.59592e-12)
(2.38335 0.0997104 2.56756e-12)
(2.0395 0.0590064 1.61177e-12)
(1.8446 0.0402052 6.89909e-13)
(1.71012 0.0294514 -4.53738e-13)
(1.64875 0.0201803 4.44996e-12)
(1.60334 0.0148177 4.74598e-12)
(1.57414 0.0106644 7.89526e-13)
(1.55297 0.00772488 9.95067e-13)
(1.53842 0.00552142 6.20109e-12)
(1.52871 0.00392871 7.18232e-12)
(1.52233 0.00282469 -1.73377e-11)
(1.51836 0.00207009 -6.84728e-12)
(1.51591 0.00155306 4.71739e-11)
(1.51455 0.00119967 2.08016e-11)
(1.51383 0.000976196 1.05665e-11)
(1.5134 0.000843061 5.61827e-12)
(1.51307 0.000741436 4.96136e-12)
(1.51281 0.000647065 -2.51855e-11)
(1.51259 0.000572969 -1.56236e-11)
(1.51227 0.000530683 -6.81707e-12)
(1.51176 0.00047402 1.03914e-12)
(1.51119 0.000349368 1.99863e-12)
(1.51091 0.000171656 -1.12551e-11)
(1.51095 4.1313e-05 2.43044e-11)
(10.6633 0.116927 -4.80592e-14)
(12.516 0.918534 -5.81035e-13)
(12.6826 1.09404 -9.56699e-13)
(12.6118 1.09018 -2.27623e-12)
(12.482 1.05942 7.01828e-14)
(12.3312 1.00388 1.84404e-12)
(12.1844 0.952524 1.25253e-12)
(12.0568 0.904899 6.63173e-13)
(11.9472 0.854757 1.19923e-12)
(11.8459 0.799364 -7.16529e-13)
(11.7273 0.739661 3.01955e-12)
(11.6027 0.684202 3.64466e-12)
(11.4815 0.641187 4.5401e-12)
(11.359 0.60501 1.75221e-12)
(11.226 0.582973 1.0965e-11)
(11.0675 0.574219 1.05001e-11)
(10.8376 0.573853 -2.05456e-12)
(10.4967 0.609327 1.55903e-12)
(10.0506 0.714512 -1.66458e-12)
(9.51118 0.852686 9.09566e-12)
(8.79361 0.992517 -1.4035e-12)
(7.76557 0.917638 6.85752e-13)
(6.38985 0.695647 5.61798e-12)
(4.98874 0.463061 5.00722e-12)
(3.83571 0.323895 7.44099e-12)
(2.96829 0.20959 4.61702e-12)
(2.37008 0.139008 3.25974e-12)
(2.03315 0.0850574 1.91678e-12)
(1.84186 0.0569911 7.29436e-13)
(1.70936 0.0410438 -6.5812e-13)
(1.64889 0.0281318 7.77541e-12)
(1.6043 0.020621 6.6274e-12)
(1.57553 0.0148453 5.81229e-13)
(1.55471 0.0107472 1.53952e-12)
(1.54039 0.00768061 1.00443e-11)
(1.53084 0.00546254 9.44843e-12)
(1.52457 0.00392383 -1.27798e-11)
(1.52068 0.00287137 -5.51808e-12)
(1.5183 0.00215087 4.51745e-11)
(1.517 0.00166002 2.3643e-11)
(1.51632 0.00135277 1.3133e-11)
(1.51594 0.00116657 7.27301e-12)
(1.51565 0.00102586 5.85753e-12)
(1.51544 0.000893292 -1.27608e-11)
(1.51526 0.000789717 -2.02027e-11)
(1.515 0.000729706 -8.23979e-12)
(1.51453 0.000657018 2.51273e-12)
(1.51399 0.000490234 2.4469e-12)
(1.5137 0.00024275 -1.63853e-11)
(1.51374 6.01043e-05 1.48578e-11)
(10.0066 0.754713 -8.161e-14)
(12.1715 1.79099 -1.61451e-12)
(12.01 1.66316 -1.56097e-12)
(11.7163 1.52771 -8.98814e-13)
(11.6106 1.43355 -8.12849e-13)
(11.5044 1.32821 4.68419e-13)
(11.4224 1.22618 8.44024e-13)
(11.362 1.13802 5.62113e-13)
(11.3161 1.0634 1.57569e-12)
(11.2661 0.987655 -1.64716e-12)
(11.1918 0.907247 8.62958e-12)
(11.1078 0.839042 6.63731e-12)
(11.0242 0.785054 6.40272e-12)
(10.9343 0.740391 3.94668e-12)
(10.8309 0.715619 7.1033e-12)
(10.6997 0.709469 9.46008e-12)
(10.49 0.712908 3.54052e-12)
(10.1725 0.762545 3.45296e-12)
(9.7483 0.901521 -6.04717e-13)
(9.22055 1.06284 8.02699e-12)
(8.50977 1.21589 1.9359e-12)
(7.50582 1.12492 1.65407e-12)
(6.1924 0.84154 -1.42743e-13)
(4.86818 0.577717 6.31753e-12)
(3.7656 0.402226 7.01677e-12)
(2.92494 0.26524 5.04223e-12)
(2.34627 0.17606 3.63051e-12)
(2.0188 0.116884 1.87912e-12)
(1.83467 0.0729797 5.51761e-13)
(1.70691 0.0520471 -7.66955e-13)
(1.64773 0.0357078 3.81701e-12)
(1.60437 0.0261455 8.20533e-12)
(1.57625 0.018834 6.46777e-12)
(1.55594 0.0136329 2.50778e-12)
(1.54196 0.00974631 6.92273e-12)
(1.53264 0.00693285 1.11801e-11)
(1.52653 0.00497912 -1.28284e-11)
(1.52274 0.00364141 -8.3429e-12)
(1.52044 0.00272513 4.07127e-11)
(1.5192 0.00210007 2.40225e-11)
(1.51858 0.00170661 1.44416e-11)
(1.51825 0.00146925 8.3458e-12)
(1.51801 0.00129058 6.36607e-12)
(1.51784 0.00112235 -6.53494e-12)
(1.51771 0.00099015 -1.38486e-11)
(1.5175 0.000914838 -8.1661e-12)
(1.51708 0.00082443 -5.98324e-12)
(1.51658 0.00061709 2.31968e-12)
(1.51629 0.000309106 -2.26543e-11)
(1.51632 7.76592e-05 2.93039e-12)
(7.58873 0.411813 -3.39488e-13)
(8.47865 2.30823 -3.40597e-12)
(9.42853 1.86978 -2.40185e-12)
(9.73767 1.75992 -2.00869e-12)
(10.0258 1.61288 -1.42481e-12)
(10.182 1.48696 -1.97333e-13)
(10.2988 1.38127 6.58998e-13)
(10.3837 1.28609 6.30208e-13)
(10.4505 1.20135 1.90823e-12)
(10.4839 1.11161 -1.82077e-12)
(10.4798 1.02128 9.49071e-12)
(10.46 0.949395 8.40112e-12)
(10.4309 0.894134 7.75858e-12)
(10.3886 0.850035 5.77238e-12)
(10.3251 0.827208 6.81799e-12)
(10.2285 0.822953 8.78101e-12)
(10.0474 0.833321 5.3674e-12)
(9.7615 0.90232 4.57223e-12)
(9.35974 1.06935 -2.12913e-13)
(8.84616 1.25535 1.33355e-11)
(8.15645 1.39348 4.73679e-12)
(7.18242 1.28148 2.5775e-12)
(5.9419 0.962634 1.79075e-12)
(4.7107 0.677603 4.81646e-12)
(3.66878 0.469799 6.42323e-12)
(2.86564 0.315542 5.19949e-12)
(2.31323 0.210667 3.66154e-12)
(1.99834 0.145053 1.40553e-12)
(1.82469 0.0882253 1.50117e-13)
(1.70316 0.0625432 -9.19176e-13)
(1.64576 0.0430501 2.18583e-12)
(1.60399 0.0314942 1.07364e-11)
(1.57673 0.0227073 5.48074e-12)
(1.5571 0.0164395 2.82032e-12)
(1.54355 0.0117617 5.83566e-12)
(1.53454 0.00837185 7.57716e-12)
(1.52863 0.00601522 -1.15478e-11)
(1.52499 0.00439941 -8.99855e-12)
(1.52279 0.00329154 3.45818e-11)
(1.52162 0.00253461 2.26082e-11)
(1.52107 0.00205723 1.46414e-11)
(1.5208 0.00176917 8.82827e-12)
(1.52062 0.00155299 6.59134e-12)
(1.5205 0.00134858 -3.47282e-12)
(1.52043 0.00118678 -1.00701e-11)
(1.52028 0.00109478 -7.71292e-12)
(1.51993 0.000988369 -3.6155e-12)
(1.51946 0.00074565 2.38449e-12)
(1.51919 0.000377721 -2.30196e-11)
(1.51922 9.58559e-05 -2.51766e-12)
(4.00892 -0.648285 -1.64846e-12)
(5.20218 0.377056 -4.05715e-12)
(6.57808 0.992201 -2.82479e-12)
(7.46064 1.36018 -3.20941e-12)
(8.11938 1.42383 -1.51375e-12)
(8.56985 1.414 4.2427e-13)
(8.92235 1.36983 1.33618e-12)
(9.18405 1.30736 1.23572e-12)
(9.39027 1.23566 2.33363e-12)
(9.53277 1.15031 -1.06918e-12)
(9.62326 1.06726 1.02222e-11)
(9.68496 1.00428 8.9697e-12)
(9.72464 0.957018 8.60581e-12)
(9.73569 0.921554 6.85788e-12)
(9.71381 0.90419 8.59695e-12)
(9.65649 0.911265 8.99855e-12)
(9.51814 0.930015 4.89607e-12)
(9.26725 1.01969 4.38057e-12)
(8.89208 1.2057 1.93899e-13)
(8.39365 1.42401 1.22077e-11)
(7.73655 1.53071 4.91609e-12)
(6.81174 1.3782 3.02017e-12)
(5.65774 1.0565 2.96205e-12)
(4.52249 0.76078 4.18954e-12)
(3.55076 0.525887 6.38242e-12)
(2.79465 0.35935 5.24094e-12)
(2.27312 0.240848 3.30971e-12)
(1.97416 0.168497 3.82061e-13)
(1.81258 0.102081 -4.32149e-13)
(1.69816 0.0723222 -1.09548e-12)
(1.64315 0.0499756 1.91332e-12)
(1.60328 0.0365436 9.99642e-12)
(1.57707 0.0263782 3.90273e-12)
(1.55825 0.0191048 2.74318e-12)
(1.54525 0.0136828 5.70071e-12)
(1.5366 0.00974882 4.5638e-12)
(1.53094 0.00701027 -9.91551e-12)
(1.52746 0.00512941 -7.98518e-12)
(1.52538 0.00383797 2.86601e-11)
(1.52431 0.00295383 1.99996e-11)
(1.52383 0.00239431 1.39633e-11)
(1.52364 0.00205669 8.774e-12)
(1.52353 0.00180385 6.57806e-12)
(1.52347 0.00156402 -2.35327e-12)
(1.52346 0.00137218 -7.83728e-12)
(1.52339 0.00126266 -7.13002e-12)
(1.52311 0.00114232 -1.22358e-12)
(1.5227 0.000867587 2.2742e-12)
(1.52245 0.000443346 -1.91095e-11)
(1.52249 0.000113481 -4.38953e-12)
(2.80823 -2.40496 -4.69537e-12)
(2.83637 -0.870511 -3.38203e-12)
(4.15069 0.107425 -2.64235e-12)
(5.2865 0.735486 -4.84136e-12)
(6.20795 1.01835 1.5165e-13)
(6.89379 1.15804 2.94099e-12)
(7.44978 1.20607 3.13897e-12)
(7.87954 1.20639 2.33298e-12)
(8.22241 1.17248 2.93209e-12)
(8.47664 1.11134 3.30495e-13)
(8.66566 1.05143 6.54995e-12)
(8.81286 1.0034 9.40549e-12)
(8.92391 0.965291 9.35878e-12)
(8.99744 0.939162 7.25345e-12)
(9.02656 0.93666 1.27146e-11)
(9.00583 0.953899 9.09048e-12)
(8.90831 0.994811 1.49357e-12)
(8.69922 1.10603 3.32282e-12)
(8.36083 1.31107 7.3951e-13)
(7.8808 1.54412 9.48891e-12)
(7.26582 1.629 2.43026e-12)
(6.40572 1.43778 3.15801e-12)
(5.35181 1.12104 4.47767e-12)
(4.31292 0.826239 3.82927e-12)
(3.41697 0.573301 6.71556e-12)
(2.71372 0.398803 5.17495e-12)
(2.2287 0.265587 2.45965e-12)
(1.9507 0.187507 -1.34591e-12)
(1.79841 0.114771 -1.0677e-12)
(1.69233 0.081196 -1.19817e-12)
(1.64002 0.0564325 2.68789e-12)
(1.6023 0.041266 6.23639e-12)
(1.57731 0.0298284 1.35809e-12)
(1.55942 0.0216166 2.59926e-12)
(1.54704 0.0155018 6.17972e-12)
(1.53881 0.0110587 1.4993e-12)
(1.53343 0.00796131 -6.55017e-12)
(1.53015 0.00582968 -5.72443e-12)
(1.52822 0.0043633 2.17402e-11)
(1.52725 0.0033569 1.661e-11)
(1.52686 0.00271779 1.26708e-11)
(1.52675 0.00233177 8.2758e-12)
(1.52671 0.00204318 6.35543e-12)
(1.52673 0.00176851 -2.5876e-12)
(1.5268 0.00154646 -6.60405e-12)
(1.5268 0.00141859 -6.48642e-12)
(1.52661 0.00128598 1.58982e-12)
(1.52625 0.000983022 1.80523e-12)
(1.52604 0.000506488 -1.28976e-11)
(1.52608 0.000131054 -4.37654e-12)
(2.66674 -1.4613 -4.2482e-12)
(1.62338 -1.14291 -2.17093e-12)
(2.42081 -0.587681 -1.97757e-12)
(3.53669 0.078293 -3.25567e-12)
(4.53734 0.51776 9.23628e-13)
(5.34793 0.79319 3.9015e-12)
(6.02977 0.939538 5.18733e-12)
(6.58193 1.00975 3.293e-12)
(7.03208 1.02286 3.64642e-12)
(7.38327 0.998986 1.59119e-12)
(7.66292 0.971893 9.29366e-12)
(7.88903 0.946741 1.2693e-11)
(8.06855 0.926581 1.01339e-11)
(8.20119 0.918025 7.80613e-12)
(8.28688 0.930215 1.05076e-11)
(8.30354 0.9661 3.82115e-12)
(8.24127 1.02857 3.04948e-12)
(8.07495 1.1702 3.41722e-12)
(7.77551 1.39456 1.40668e-12)
(7.33094 1.62672 1.00914e-11)
(6.75882 1.67526 4.69534e-12)
(5.98142 1.46711 3.62554e-12)
(5.03344 1.15473 2.05095e-12)
(4.09196 0.872624 3.37875e-12)
(3.27563 0.612539 5.52347e-12)
(2.62775 0.431 4.85595e-12)
(2.1812 0.287143 1.13707e-12)
(1.92891 0.203988 -3.79695e-12)
(1.78365 0.126022 -1.47161e-12)
(1.68605 0.0892262 -1.06195e-12)
(1.63652 0.0623565 6.01203e-13)
(1.60113 0.0456153 3.75665e-12)
(1.5775 0.0330251 1.88801e-12)
(1.56065 0.0239519 2.87281e-12)
(1.54895 0.0172029 3.68876e-12)
(1.5412 0.0122909 1.13722e-12)
(1.53613 0.00886115 -5.01502e-12)
(1.53307 0.0064953 -6.06197e-12)
(1.53129 0.0048639 1.34403e-11)
(1.53044 0.00374102 1.29184e-11)
(1.53014 0.00302515 1.10404e-11)
(1.53012 0.002592 7.44334e-12)
(1.53017 0.00226862 5.94302e-12)
(1.53028 0.00195998 -3.85232e-12)
(1.53042 0.00170784 -5.96219e-12)
(1.53051 0.00156093 -5.74504e-12)
(1.5304 0.00141743 -5.12886e-13)
(1.53012 0.00109051 8.26368e-13)
(1.52994 0.000566869 -9.1122e-12)
(1.52997 0.000148666 -3.62884e-12)
(2.14338 -1.05227 -3.96444e-13)
(1.24118 -0.987802 -8.28981e-13)
(1.55234 -0.828966 -1.09731e-12)
(2.31639 -0.375713 -1.84535e-12)
(3.2254 0.0700342 -3.09351e-13)
(4.03574 0.408167 1.3131e-12)
(4.75796 0.625462 2.48301e-12)
(5.37181 0.759491 3.07321e-12)
(5.88873 0.823698 4.52192e-12)
(6.31184 0.842311 3.33395e-12)
(6.66334 0.849127 6.20553e-12)
(6.9541 0.851314 8.99753e-12)
(7.19183 0.854316 8.87741e-12)
(7.37674 0.866075 7.42676e-12)
(7.50933 0.899258 8.81229e-12)
(7.57187 0.952821 5.78522e-12)
(7.54159 1.03837 4.37127e-12)
(7.41532 1.20774 3.87365e-12)
(7.15469 1.44143 2.23495e-12)
(6.76908 1.64781 5.96496e-12)
(6.23932 1.6623 5.52329e-12)
(5.55353 1.47157 4.16323e-12)
(4.71344 1.17572 2.48472e-12)
(3.87026 0.901912 3.27173e-12)
(3.12961 0.641954 4.69196e-12)
(2.53946 0.455188 4.54215e-12)
(2.13414 0.30633 1.64234e-12)
(1.90317 0.217213 -3.39047e-12)
(1.76833 0.135966 -1.06763e-12)
(1.6792 0.096429 -6.73966e-13)
(1.63287 0.0677114 -7.91052e-13)
(1.59997 0.0495633 2.25771e-12)
(1.57781 0.0359477 2.04132e-12)
(1.56206 0.0260962 3.38291e-12)
(1.55111 0.018776 1.52496e-12)
(1.54387 0.0134386 2.57214e-13)
(1.53915 0.00970525 -1.4946e-12)
(1.53632 0.00712306 -5.91699e-12)
(1.53471 0.00533752 9.61771e-12)
(1.53399 0.00410451 9.55962e-12)
(1.53381 0.00331505 9.33457e-12)
(1.53389 0.00283606 6.38094e-12)
(1.53403 0.00247886 5.33671e-12)
(1.53423 0.00213725 -1.06755e-12)
(1.53446 0.00185495 -5.52e-12)
(1.53465 0.00168907 -4.95436e-12)
(1.53463 0.00153619 -1.74854e-12)
(1.53442 0.0011897 -3.48482e-13)
(1.53428 0.000624542 -7.00018e-12)
(1.53432 0.000166581 -2.61594e-12)
(1.08787 -0.084177 -2.8759e-14)
(1.30638 -0.43691 -4.84069e-14)
(1.28372 -0.616757 -3.46179e-13)
(1.62803 -0.493699 -8.98893e-13)
(2.27653 -0.220868 -1.03889e-12)
(2.97547 0.0825552 -1.29933e-12)
(3.65803 0.317719 -4.21325e-13)
(4.27581 0.487997 3.3746e-12)
(4.81455 0.592018 6.64497e-12)
(5.27626 0.653494 5.3056e-12)
(5.67438 0.694095 5.5473e-12)
(6.0143 0.721238 6.48872e-12)
(6.29798 0.745817 7.21285e-12)
(6.52637 0.777213 6.32367e-12)
(6.69857 0.828049 7.7076e-12)
(6.80242 0.897783 5.86232e-12)
(6.80862 1.00447 5.09392e-12)
(6.71969 1.18972 4.29784e-12)
(6.50407 1.41521 2.86125e-12)
(6.18614 1.59331 4.06251e-12)
(5.7251 1.61308 7.3532e-12)
(5.12545 1.45149 4.70071e-12)
(4.38857 1.18201 2.86601e-12)
(3.64362 0.917499 3.3722e-12)
(2.97955 0.663098 4.27964e-12)
(2.44932 0.474706 4.31541e-12)
(2.08456 0.325287 4.86257e-12)
(1.87661 0.228538 8.38325e-14)
(1.75264 0.144636 9.20256e-14)
(1.67209 0.102885 -9.72925e-14)
(1.62928 0.0726117 1.29646e-12)
(1.59903 0.0531934 1.59846e-12)
(1.57848 0.0386587 2.24505e-12)
(1.56395 0.0280956 4.12709e-12)
(1.55381 0.0202551 -9.79487e-13)
(1.54714 0.0145267 -7.60835e-13)
(1.54281 0.0105118 1.3108e-12)
(1.54025 0.00772625 -6.01439e-12)
(1.53884 0.00579382 3.04345e-12)
(1.53827 0.00445455 6.42719e-12)
(1.53821 0.00359283 7.69977e-12)
(1.5384 0.00306802 5.12922e-12)
(1.53867 0.00267707 4.68766e-12)
(1.53897 0.00230282 7.7073e-13)
(1.53931 0.00198984 -5.56245e-12)
(1.5396 0.0018049 -4.05855e-12)
(1.53968 0.00164507 -2.60451e-12)
(1.53956 0.00128167 -1.65273e-12)
(1.53947 0.00068051 -5.98452e-12)
(1.5395 0.000185439 -1.44285e-12)
(0.966813 -0.0227094 4.83496e-14)
(1.18614 -0.193867 3.05886e-13)
(1.18006 -0.288467 6.42143e-14)
(1.31492 -0.324004 -4.88118e-13)
(1.659 -0.276874 -1.96536e-12)
(2.16416 -0.115953 -4.8402e-12)
(2.73096 0.063731 -3.42365e-12)
(3.29028 0.223845 7.12954e-12)
(3.81195 0.344201 1.22149e-11)
(4.28354 0.432629 7.10073e-12)
(4.69904 0.497727 5.37929e-12)
(5.06499 0.545938 4.3058e-12)
(5.37966 0.589797 5.69872e-12)
(5.64161 0.639785 4.7444e-12)
(5.84643 0.706947 7.4393e-12)
(5.98458 0.796563 4.74772e-12)
(6.02852 0.923937 5.64795e-12)
(5.97679 1.12031 4.65164e-12)
(5.81901 1.33921 3.2372e-12)
(5.57231 1.51275 3.04935e-12)
(5.19305 1.54311 5.62504e-12)
(4.67616 1.40487 4.99061e-12)
(4.04622 1.16654 2.9033e-12)
(3.402 0.916785 3.68622e-12)
(2.81867 0.676072 4.18193e-12)
(2.35251 0.489772 4.17888e-12)
(2.03069 0.339119 5.15539e-12)
(1.84753 0.237677 2.48246e-12)
(1.7355 0.152373 1.43941e-12)
(1.66426 0.108795 6.60067e-13)
(1.62538 0.0772311 3.86192e-12)
(1.59812 0.056634 1.15224e-12)
(1.5794 0.0412581 2.74963e-12)
(1.56625 0.030025 5.18276e-12)
(1.55706 0.0216974 -1.48029e-12)
(1.55104 0.0155984 -1.5821e-12)
(1.54716 0.0113132 4.27792e-12)
(1.54492 0.00832895 -7.22771e-12)
(1.54374 0.00625071 -1.41568e-12)
(1.54335 0.00480441 3.94923e-12)
(1.54344 0.00386837 6.25043e-12)
(1.54378 0.00329534 3.6276e-12)
(1.54418 0.00286894 4.10315e-12)
(1.54461 0.00246097 1.96586e-12)
(1.54507 0.00211609 -6.37997e-12)
(1.54548 0.00191213 -2.89565e-12)
(1.54568 0.00174653 -3.40227e-12)
(1.54565 0.00136838 -3.18827e-12)
(1.54563 0.000736773 -5.72857e-12)
(1.54565 0.000206493 2.47197e-14)
(0.952597 0.0204144 1.05695e-13)
(1.05226 -0.0672381 7.85683e-13)
(1.09538 -0.117715 2.12638e-13)
(1.18125 -0.147867 -6.1113e-13)
(1.35347 -0.166385 -3.89186e-12)
(1.6429 -0.134425 -1.08278e-11)
(2.03945 -0.0617965 -5.26728e-12)
(2.48772 0.0346148 6.15132e-12)
(2.94055 0.130139 6.44623e-12)
(3.37544 0.21291 4.98681e-12)
(3.7803 0.28566 3.76218e-12)
(4.15056 0.349157 1.06295e-12)
(4.47825 0.41074 4.52237e-12)
(4.7591 0.478839 2.59958e-12)
(4.98602 0.563752 9.21306e-12)
(5.15024 0.6744 1.37763e-12)
(5.22506 0.823177 7.43515e-12)
(5.21258 1.02412 4.89378e-12)
(5.11432 1.24213 3.30655e-12)
(4.93042 1.40656 1.8751e-12)
(4.62671 1.44377 5.53118e-12)
(4.1992 1.3324 5.44125e-12)
(3.67882 1.12608 2.4856e-12)
(3.13847 0.897662 4.41847e-12)
(2.64323 0.677553 4.40586e-12)
(2.24481 0.495084 4.17979e-12)
(1.97038 0.346648 6.0579e-12)
(1.81364 0.244243 4.20257e-12)
(1.71568 0.158815 2.68077e-12)
(1.65486 0.11402 1.61531e-12)
(1.62049 0.0814804 1.21077e-12)
(1.59663 0.0598215 -5.02555e-15)
(1.58006 0.0437063 4.00887e-12)
(1.5685 0.0318603 6.60379e-12)
(1.56041 0.0230898 1.89864e-12)
(1.55516 0.0166484 -2.08097e-12)
(1.55181 0.0121079 3.01195e-12)
(1.54993 0.00893135 -1.10895e-11)
(1.54903 0.00670872 -4.32022e-12)
(1.54885 0.00515449 2.7065e-12)
(1.54911 0.00414131 5.16691e-12)
(1.54961 0.00351661 1.75295e-12)
(1.55016 0.00305211 3.80046e-12)
(1.55075 0.00260892 2.61276e-12)
(1.55134 0.00223075 -3.87122e-12)
(1.55189 0.0020075 -9.0863e-13)
(1.55222 0.00183833 -4.57065e-12)
(1.5523 0.00144812 -5.13538e-12)
(1.55234 0.000793743 -6.01669e-12)
(1.55236 0.000230518 2.12027e-12)
(0.933488 0.0173022 5.40318e-14)
(1.00511 -0.0212407 2.21e-13)
(1.05199 -0.042945 -1.63425e-14)
(1.12194 -0.0565153 -1.08055e-12)
(1.2258 -0.0666437 -7.92459e-12)
(1.39273 -0.0679905 -7.38489e-12)
(1.63665 -0.0593596 -2.152e-13)
(1.94637 -0.0353362 -9.94771e-13)
(2.29491 0.00496839 4.33631e-13)
(2.65884 0.0571372 1.05255e-12)
(3.01774 0.117354 5.78237e-13)
(3.35753 0.178735 -4.45058e-12)
(3.6695 0.245829 -5.16896e-12)
(3.94459 0.323472 -1.34661e-12)
(4.17342 0.420057 5.87284e-12)
(4.34628 0.544106 2.8565e-12)
(4.44011 0.704143 4.72141e-12)
(4.46179 0.903826 4.20715e-12)
(4.41 1.11189 2.92991e-12)
(4.28168 1.26613 -4.38187e-13)
(4.04668 1.31363 3.01798e-12)
(3.70354 1.23363 4.05008e-12)
(3.29281 1.06658 3.27872e-12)
(2.85726 0.866931 6.08778e-12)
(2.45146 0.666036 4.91432e-12)
(2.12493 0.492684 4.30979e-12)
(1.90227 0.340995 8.17642e-12)
(1.77558 0.246299 5.37542e-12)
(1.6928 0.1634 3.56162e-12)
(1.64357 0.118027 2.45896e-12)
(1.61426 0.0850494 -1.68103e-12)
(1.59426 0.0625352 -1.27554e-12)
(1.58015 0.0458493 7.40261e-13)
(1.57043 0.0334966 2.84116e-12)
(1.56361 0.0243617 3.34645e-12)
(1.55924 0.0176299 -3.61195e-12)
(1.55649 0.0128654 2.53637e-12)
(1.55505 0.00951297 -1.32655e-11)
(1.55447 0.00715392 -4.81554e-12)
(1.55453 0.00549507 3.55167e-12)
(1.55499 0.004404 4.5075e-12)
(1.55566 0.00372453 -7.14784e-13)
(1.55639 0.00321923 4.25501e-12)
(1.55714 0.00273985 2.87569e-12)
(1.55789 0.00232767 -2.37508e-12)
(1.55858 0.00208443 -3.2448e-12)
(1.55905 0.00191382 -7.0543e-12)
(1.55926 0.00151865 -7.71361e-12)
(1.55937 0.000851084 -6.45991e-12)
(1.55939 0.000258058 5.46351e-12)
(0.923208 0.0135602 3.23109e-14)
(0.973391 0.00244021 9.48071e-14)
(1.01841 -0.0033609 -3.93375e-14)
(1.0798 -0.0093237 -8.05138e-13)
(1.16118 -0.0152289 -3.32531e-12)
(1.27757 -0.0205814 -4.77083e-12)
(1.44242 -0.0315211 -3.79026e-12)
(1.6556 -0.0391803 -6.7887e-12)
(1.9075 -0.0361983 -3.7138e-12)
(2.18191 -0.0191528 -2.15881e-12)
(2.4659 0.0126081 -3.37845e-12)
(2.74614 0.057285 -4.25425e-12)
(3.01351 0.116506 -4.01043e-12)
(3.25549 0.193128 -2.42859e-12)
(3.46142 0.291466 -5.63214e-14)
(3.62158 0.418212 1.15668e-12)
(3.71711 0.578288 3.78988e-12)
(3.75687 0.769313 3.61068e-12)
(3.73478 0.961218 2.41175e-12)
(3.64756 1.10608 -2.28653e-13)
(3.47203 1.15954 2.20207e-12)
(3.21252 1.11265 3.10375e-12)
(2.90276 0.986635 3.81757e-12)
(2.5646 0.817255 4.89999e-12)
(2.25172 0.639439 5.17953e-12)
(1.99423 0.479918 4.41049e-12)
(1.82995 0.33879 5.98724e-12)
(1.73646 0.24362 5.06723e-12)
(1.66769 0.166158 3.77989e-12)
(1.63031 0.120448 2.81359e-12)
(1.60664 0.0876051 3.43798e-13)
(1.59084 0.0645253 -1.97635e-12)
(1.57952 0.0475021 -1.32016e-12)
(1.57184 0.0348038 -6.80364e-14)
(1.56646 0.0254213 4.41467e-12)
(1.5631 0.0184803 -1.59044e-12)
(1.56106 0.0135418 -2.40485e-12)
(1.56012 0.010043 -1.013e-11)
(1.55991 0.00756405 -1.23441e-12)
(1.56025 0.00580979 1.73878e-12)
(1.56093 0.00464339 3.61692e-12)
(1.5618 0.00390708 2.68275e-13)
(1.56273 0.00335842 1.70672e-12)
(1.56366 0.00284292 2.58831e-12)
(1.56457 0.00239756 -8.02501e-12)
(1.56542 0.00213431 -6.09714e-12)
(1.56604 0.00196546 -6.42821e-12)
(1.56638 0.00157307 -6.20375e-12)
(1.56658 0.000905948 -6.1407e-12)
(1.5666 0.000288497 7.29621e-12)
(0.915967 0.0096444 4.26942e-14)
(0.953993 0.0104501 1.47759e-13)
(0.993658 0.0128142 1.67244e-13)
(1.04636 0.0128641 -5.41427e-13)
(1.11728 0.00947912 -3.20462e-12)
(1.21278 0.000279371 -5.0384e-12)
(1.33676 -0.0152823 -4.08852e-12)
(1.49395 -0.0352535 -4.12466e-12)
(1.67775 -0.0490479 -3.43196e-12)
(1.88095 -0.0508273 -3.13817e-12)
(2.0949 -0.0381596 -8.23273e-12)
(2.30888 -0.00809465 -5.43031e-12)
(2.51668 0.0396707 -3.87104e-12)
(2.70696 0.107155 -2.62953e-12)
(2.87016 0.198811 -4.12386e-12)
(2.99962 0.318549 -1.88525e-13)
(3.07904 0.466509 4.79706e-12)
(3.12114 0.641034 3.37052e-12)
(3.11296 0.809606 1.73835e-12)
(3.05454 0.941574 -2.58729e-12)
(2.9314 0.998933 2.71772e-12)
(2.7452 0.979903 2.61734e-12)
(2.5218 0.886909 4.96255e-12)
(2.2754 0.749632 4.14587e-12)
(2.05053 0.598181 6.39118e-12)
(1.86559 0.457317 4.38884e-12)
(1.75662 0.338651 4.66337e-12)
(1.69006 0.235536 4.28722e-12)
(1.64054 0.165907 3.47811e-12)
(1.61494 0.120609 2.78057e-12)
(1.59758 0.0886231 1.07504e-12)
(1.58626 0.065445 -3.81796e-12)
(1.57802 0.0484133 -2.69585e-12)
(1.57256 0.035612 -1.77614e-12)
(1.56878 0.026149 1.32422e-12)
(1.56653 0.019115 -3.14688e-12)
(1.56531 0.0140775 -2.45649e-12)
(1.56494 0.0104793 -4.14244e-12)
(1.56516 0.00790967 9.18005e-13)
(1.56582 0.00607827 1.3231e-12)
(1.56676 0.0048448 3.11544e-12)
(1.56784 0.0040521 1.29469e-13)
(1.56898 0.00345839 5.336e-14)
(1.57012 0.00290857 1.85856e-12)
(1.57121 0.00243332 -1.20623e-11)
(1.57221 0.00215093 -8.457e-12)
(1.573 0.00198609 -6.56046e-12)
(1.57348 0.0016063 -5.27604e-12)
(1.57377 0.000956617 -5.09534e-12)
(1.57379 0.000322638 4.35433e-12)
(0.911409 0.00643834 7.53359e-14)
(0.940273 0.0118668 3.23896e-13)
(0.973961 0.0178963 8.69824e-13)
(1.01861 0.0210792 7.58725e-14)
(1.07791 0.0188122 -1.32081e-12)
(1.15884 0.00754624 -2.32374e-12)
(1.26105 -0.0124797 -2.62259e-12)
(1.38167 -0.0338142 -2.72231e-12)
(1.52056 -0.0519056 -2.58286e-12)
(1.67047 -0.0591036 -2.62369e-12)
(1.8265 -0.0538597 -3.88315e-12)
(1.98248 -0.0327898 -3.56942e-12)
(2.13263 0.00541205 -2.81106e-12)
(2.26999 0.0631754 -1.64298e-12)
(2.38796 0.144355 1.97475e-12)
(2.48086 0.251088 1.1485e-12)
(2.53949 0.381371 2.35567e-12)
(2.57057 0.530669 1.96014e-12)
(2.56671 0.673044 9.97183e-13)
(2.52661 0.787056 -2.11438e-12)
(2.44396 0.843938 6.97232e-13)
(2.31995 0.839323 1.36651e-12)
(2.16966 0.774447 2.43603e-12)
(2.0053 0.665357 2.49404e-12)
(1.86433 0.543198 3.52739e-12)
(1.74728 0.41447 3.08566e-12)
(1.68182 0.316595 3.67005e-12)
(1.64247 0.221803 3.42751e-12)
(1.61339 0.161162 2.84592e-12)
(1.59807 0.118153 2.46655e-12)
(1.58738 0.0876757 3.28384e-13)
(1.58056 0.0650249 -2.30547e-12)
(1.57556 0.0483696 -2.83506e-12)
(1.5724 0.0357608 -2.4289e-12)
(1.57033 0.0264194 -4.84184e-13)
(1.56931 0.0194422 -1.70386e-12)
(1.56898 0.014402 -2.43823e-12)
(1.56926 0.0107681 1.69383e-12)
(1.56998 0.0081499 5.07216e-13)
(1.571 0.00626975 1.02002e-12)
(1.57222 0.00498453 -2.77571e-12)
(1.57355 0.00413935 -1.61458e-12)
(1.57491 0.0035004 -1.23465e-12)
(1.57626 0.00292015 4.36361e-13)
(1.57753 0.002422 -1.27294e-11)
(1.57868 0.00212169 -9.14523e-12)
(1.57964 0.00196117 -6.40919e-12)
(1.58029 0.00160553 -4.57641e-12)
(1.58066 0.000997079 -3.59814e-12)
(1.58071 0.000356744 -2.89921e-12)
(0.908168 0.00419056 6.68117e-14)
(0.930182 0.00991444 3.10971e-13)
(0.957406 0.01613 1.1444e-12)
(0.993603 0.0197933 8.9851e-14)
(1.04318 0.0174736 -2.02667e-12)
(1.10912 0.00644074 -1.88294e-12)
(1.19101 -0.0122552 -1.91671e-12)
(1.28681 -0.0330553 -1.94694e-12)
(1.38977 -0.0481087 -1.9348e-12)
(1.50026 -0.0551798 -2.05258e-12)
(1.6119 -0.0497923 -2.73621e-12)
(1.72115 -0.0313959 -2.4294e-12)
(1.8244 0.00158558 -1.81775e-12)
(1.91696 0.0522852 -1.0138e-12)
(1.99456 0.122107 2.76305e-13)
(2.05407 0.212543 6.72754e-13)
(2.09171 0.320227 9.28278e-13)
(2.11048 0.441587 5.12129e-13)
(2.10537 0.555995 5.88277e-13)
(2.08078 0.648396 2.11524e-12)
(2.0296 0.698351 8.28171e-13)
(1.9559 0.702141 2.74495e-13)
(1.86568 0.657598 4.5721e-13)
(1.77347 0.576098 6.47105e-13)
(1.69488 0.471046 1.61149e-12)
(1.64321 0.369969 1.32739e-12)
(1.621 0.282262 3.88823e-12)
(1.59903 0.204502 2.58377e-12)
(1.58681 0.151602 1.89831e-12)
(1.58059 0.112527 1.8953e-12)
(1.57626 0.0842571 -2.61752e-12)
(1.57381 0.0628838 -2.90163e-12)
(1.57205 0.0470875 -3.09463e-12)
(1.57125 0.0350448 -2.42588e-12)
(1.57093 0.0260732 -1.03727e-12)
(1.5712 0.0193392 -1.80082e-12)
(1.57183 0.0144233 -2.52001e-12)
(1.57284 0.0108417 -1.22413e-12)
(1.5741 0.00823622 -8.94605e-13)
(1.57554 0.00635093 -1.32301e-13)
(1.57707 0.00504068 -8.26403e-13)
(1.57866 0.00415464 -2.5048e-12)
(1.58025 0.00347458 -1.89074e-12)
(1.58182 0.00287135 -2.03982e-12)
(1.58327 0.002362 -1.1472e-11)
(1.58457 0.00204688 -7.60022e-12)
(1.58568 0.00188702 -5.366e-12)
(1.58649 0.00157103 -3.69293e-12)
(1.58696 0.00102667 -2.59724e-12)
(1.58705 0.000392591 -1.57291e-12)
(0.906015 0.00237628 -2.13691e-14)
(0.922605 0.00655186 -3.15747e-13)
(0.943792 0.0112699 2.6864e-14)
(0.972382 0.0137187 -1.3103e-13)
(1.01015 0.011638 -6.30461e-13)
(1.06163 0.00169976 -9.89871e-13)
(1.12452 -0.0135009 -1.26806e-12)
(1.19525 -0.0299158 -1.40147e-12)
(1.27252 -0.0409838 -1.46554e-12)
(1.35075 -0.0426041 -1.7141e-12)
(1.42917 -0.034978 -3.49347e-12)
(1.50212 -0.0159555 -1.66274e-12)
(1.56948 0.0153041 -7.80657e-13)