/*--------------------------------*- C++ -*----------------------------------*\
| =========                 |                                                 |
| \\      /  F ield         | OpenFOAM: The Open Source CFD Toolbox           |
|  \\    /   O peration     | Version:  2.4.x                                 |
|   \\  /    A nd           | Web:      www.OpenFOAM.org                      |
|    \\/     M anipulation  |                                                 |
\*---------------------------------------------------------------------------*/
FoamFile
{
    version     2.0;
    format      ascii;
    class       volScalarField;
    location    "0.03";
    object      varZ;
}
// * * * * * * * * * * * * * * * * * * * * * * * * * * * * * * * * * * * * * //

dimensions      [0 0 0 0 0 0 0];

internalField   nonuniform List<scalar> 
1250
(
0.00111752
0.00459955
0.00988755
0.0160394
0.0225621
0.0289107
0.0346675
0.0394813
0.0432549
0.0460633
0.04798
0.0491825
0.0497178
0.049715
0.0494731
0.0487873
0.0478758
0.0478772
0.049356
0.0551191
0.0747635
0.0950622
0.0898235
0.0666765
0.0386404
0.0189982
0.00759414
0.00239089
0.000623966
0.000150297
3.52674e-05
8.07057e-06
1.78132e-06
3.77421e-07
7.66075e-08
1.4866e-08
2.75126e-09
4.84417e-10
8.09684e-11
1.28226e-11
1.92102e-12
2.71901e-13
3.6328e-14
4.5802e-15
5.44914e-16
6.11775e-17
6.48035e-18
6.47716e-19
6.11295e-20
5.38179e-21
0.00125749
0.00516456
0.0110213
0.0177049
0.0246418
0.0311819
0.0369465
0.0416135
0.0451833
0.047776
0.0494773
0.0504806
0.0508313
0.0507353
0.0503602
0.049546
0.0485818
0.0485737
0.0500923
0.0559753
0.075892
0.095172
0.0895623
0.0661334
0.0383399
0.0188523
0.00753484
0.00237203
0.000619257
0.000149239
3.50411e-05
8.02323e-06
1.77181e-06
3.75596e-07
7.62745e-08
1.48085e-08
2.74188e-09
4.82978e-10
8.07617e-11
1.27951e-11
1.91767e-12
2.71536e-13
3.62938e-14
4.57775e-15
5.44845e-16
6.11952e-17
6.48494e-18
6.48449e-19
6.1225e-20
5.39189e-21
0.00167251
0.0068122
0.0142801
0.0223574
0.0301989
0.0369759
0.0425414
0.0467156
0.049717
0.0517332
0.0528826
0.0534081
0.0533575
0.0529951
0.0523076
0.0512653
0.0501844
0.0501759
0.0517458
0.057932
0.0784303
0.0953531
0.0889344
0.0648282
0.0376177
0.0184923
0.0073846
0.00232277
0.000606669
0.000146402
3.44288e-05
7.89345e-06
1.74518e-06
3.70349e-07
7.52853e-08
1.46304e-08
2.71136e-09
4.78001e-10
7.99914e-11
1.26824e-11
1.90212e-12
2.69519e-13
3.60488e-14
4.54995e-15
5.4191e-16
6.09078e-17
6.45902e-18
6.46318e-19
6.1068e-20
5.38146e-21
0.00284494
0.0111346
0.0223005
0.032738
0.041368
0.0477295
0.0523383
0.0552943
0.0570814
0.0580112
0.0581774
0.0579411
0.0572981
0.0563543
0.0552814
0.0539205
0.0526841
0.0526952
0.0542241
0.0610998
0.0821094
0.0954042
0.0877708
0.062836
0.0364887
0.0179202
0.00714347
0.00224312
0.000586239
0.000141797
3.34315e-05
7.68094e-06
1.70127e-06
3.61627e-07
7.36248e-08
1.43281e-08
2.65882e-09
4.69302e-10
7.86216e-11
1.24779e-11
1.87328e-12
2.65682e-13
3.55681e-14
4.49339e-15
5.35666e-16
6.02619e-17
6.39651e-18
6.40673e-19
6.05932e-20
5.34438e-21
0.00773461
0.0243519
0.0421948
0.0536599
0.0607987
0.064773
0.0668379
0.0674116
0.0671715
0.0664549
0.0652744
0.0639091
0.0623951
0.060785
0.0592092
0.0574627
0.0560886
0.0561636
0.0579376
0.0655342
0.0860577
0.0950493
0.0858194
0.0603284
0.0350008
0.0171589
0.00682215
0.00213711
0.00055905
0.000135673
3.21024e-05
7.397e-06
1.64245e-06
3.49915e-07
7.13885e-08
1.39196e-08
2.58756e-09
4.57452e-10
7.67479e-11
1.2197e-11
1.83344e-12
2.60352e-13
3.48966e-14
4.41381e-15
5.26809e-16
5.9337e-17
6.30603e-18
6.32395e-19
5.98855e-20
5.28819e-21
0.0491338
0.0687307
0.081101
0.0860138
0.0874536
0.086633
0.0845952
0.0819125
0.0790484
0.076242
0.073478
0.0708538
0.0683609
0.0660176
0.0638928
0.0617575
0.0603291
0.0605249
0.0626719
0.0709933
0.0896735
0.0940354
0.0830397
0.0573435
0.0332067
0.0162387
0.00643465
0.00200978
0.000526443
0.000128322
3.05026e-05
7.05449e-06
1.57139e-06
3.35742e-07
6.86789e-08
1.34239e-08
2.50096e-09
4.43034e-10
7.44662e-11
1.18547e-11
1.78488e-12
2.53851e-13
3.4077e-14
4.31666e-15
5.15994e-16
5.82077e-17
6.19558e-18
6.22294e-19
5.90231e-20
5.21986e-21
0.0701264
0.110578
0.119162
0.117885
0.113902
0.107983
0.101947
0.0961614
0.0908214
0.0860671
0.0817953
0.0780004
0.0746058
0.0715955
0.0689727
0.0665393
0.0651962
0.0655656
0.0681172
0.0770742
0.0920587
0.0922619
0.0793844
0.0539736
0.0311698
0.0151963
0.00599724
0.00186686
0.00048994
0.000120075
2.87015e-05
6.6679e-06
1.49105e-06
3.19704e-07
6.56105e-08
1.28623e-08
2.40281e-09
4.26693e-10
7.18824e-11
1.14677e-11
1.73006e-12
2.46527e-13
3.31562e-14
4.20786e-15
5.03933e-16
5.69547e-17
6.07381e-18
6.11249e-19
5.809e-20
5.14695e-21
0.0305618
0.114671
0.135393
0.135566
0.130747
0.122867
0.11474
0.107138
0.100254
0.0942357
0.0889482
0.0843454
0.0803426
0.0768839
0.0739286
0.0713825
0.0702771
0.0708392
0.0737071
0.0826474
0.0927277
0.0897513
0.0748664
0.0503069
0.0289601
0.0140718
0.0055275
0.0017145
0.000451146
0.000111288
2.67743e-05
6.25314e-06
1.40473e-06
3.02458e-07
6.23105e-08
1.22584e-08
2.29733e-09
4.09157e-10
6.91163e-11
1.10547e-11
1.67177e-12
2.38777e-13
3.21876e-14
4.09423e-15
4.91445e-16
5.56712e-17
5.95076e-18
6.0028e-19
5.71846e-20
5.07831e-21
0.0170815
0.0857891
0.122272
0.132497
0.131723
0.126954
0.11968
0.112353
0.105414
0.099184
0.0936534
0.0888294
0.0846667
0.0811007
0.0780873
0.0756978
0.0749503
0.0756777
0.0786805
0.0865773
0.0917981
0.0864433
0.0695171
0.046419
0.0266552
0.0129062
0.00504335
0.00155889
0.000411666
0.000102325
2.47997e-05
5.82684e-06
1.3159e-06
2.84704e-07
5.89146e-08
1.16377e-08
2.18913e-09
3.91221e-10
6.62989e-11
1.06362e-11
1.61312e-12
2.31044e-13
3.1231e-14
3.9834e-15
4.79453e-16
5.4463e-17
5.83786e-18
5.90559e-19
5.64203e-20
5.02419e-21
0.0121132
0.0470167
0.0847923
0.107692
0.117122
0.118229
0.115379
0.110429
0.10494
0.0996526
0.0947989
0.0904737
0.0866843
0.083423
0.0806983
0.0787355
0.078419
0.079295
0.0822156
0.0880255
0.0892122
0.0818515
0.0639374
0.0424741
0.0243348
0.0117404
0.00456265
0.00140597
0.00037303
9.35351e-05
2.28547e-05
5.40586e-06
1.22808e-06
2.67158e-07
5.55634e-08
1.10267e-08
2.08304e-09
3.73736e-10
6.35716e-11
1.02348e-11
1.55749e-12
2.23812e-13
3.0352e-14
3.88383e-15
4.68986e-16
5.34483e-17
5.74802e-18
5.83414e-19
5.59267e-20
4.99637e-21
0.00308201
0.0179661
0.0420504
0.0687749
0.0878137
0.0975709
0.101007
0.100539
0.0983736
0.0951579
0.0917909
0.0885808
0.0856449
0.0830865
0.0810122
0.079756
0.079848
0.0809637
0.0835865
0.0868194
0.085248
0.076049
0.0581639
0.0384818
0.0219989
0.0105761
0.00408699
0.00125627
0.000335371
8.49393e-05
2.09437e-05
4.99116e-06
1.14149e-06
2.49865e-07
5.22673e-08
1.04279e-08
1.97965e-09
3.56825e-10
6.09603e-11
9.85523e-12
1.50575e-12
2.17229e-13
2.95736e-14
3.79883e-15
4.60499e-16
5.26856e-17
5.68823e-18
5.79636e-19
5.57876e-20
5.00304e-21
0.00139437
0.00709549
0.0175591
0.0330924
0.0515372
0.0669863
0.0767615
0.0818254
0.083806
0.0838772
0.0831617
0.0818877
0.080503
0.0792558
0.0783145
0.0780333
0.0785784
0.0800587
0.0820933
0.0829292
0.0795016
0.0689475
0.0519687
0.034249
0.0195307
0.0093528
0.00359124
0.00110183
0.000296547
7.60027e-05
1.89377e-05
4.55268e-06
1.04939e-06
2.31382e-07
4.87297e-08
9.78322e-09
1.86809e-09
3.38564e-10
5.81407e-11
9.44599e-12
1.45014e-12
2.10188e-13
2.87477e-14
3.7097e-15
4.51764e-16
5.19251e-17
5.6322e-18
5.76618e-19
5.57593e-20
5.02301e-21
0.000792686
0.00347442
0.00796334
0.0146706
0.0243972
0.0363546
0.0477187
0.0564419
0.0623155
0.0660077
0.0682154
0.0695074
0.0702623
0.0708453
0.0715207
0.0725691
0.0739922
0.0758143
0.0770764
0.0763507
0.0716236
0.0605768
0.0451717
0.0296571
0.0168559
0.00802853
0.00305744
0.000936853
0.000254859
6.62489e-05
1.67099e-05
4.05823e-06
9.44052e-07
2.09936e-07
4.45634e-08
9.01209e-09
1.7325e-09
3.15992e-10
5.45885e-11
8.91935e-12
1.37682e-12
2.00632e-13
2.75852e-14
3.57825e-15
4.38022e-16
5.06083e-17
5.51811e-18
5.67912e-19
5.52078e-20
4.99835e-21
0.000492786
0.00197047
0.00418646
0.00731032
0.0117475
0.0178626
0.0253282
0.0329899
0.0397825
0.0453897
0.0498259
0.0533626
0.0562491
0.05877
0.0611479
0.0635364
0.0658595
0.0678833
0.0686079
0.0671871
0.0618124
0.0512471
0.0378922
0.0247654
0.014005
0.00661511
0.00249106
0.000763201
0.000210525
5.56423e-05
1.42325e-05
3.4973e-06
8.22217e-07
1.8464e-07
3.95477e-08
8.06389e-09
1.56202e-09
2.86912e-10
4.98942e-11
8.20353e-12
1.27396e-12
1.86727e-13
2.58197e-14
3.36802e-15
4.1459e-16
4.81682e-17
5.2814e-18
5.46598e-19
5.34344e-20
4.86354e-21
0.000314453
0.00119453
0.00241622
0.00406633
0.0063168
0.00939846
0.0134677
0.0183073
0.0234485
0.0285233
0.0332878
0.0376744
0.0416976
0.0454366
0.0489602
0.0522608
0.0551496
0.0572294
0.0576613
0.0559924
0.0506555
0.0413934
0.0303695
0.0197204
0.0110665
0.00515835
0.00191354
0.000587888
0.000165017
4.44665e-05
1.15559e-05
2.87773e-06
6.84717e-07
1.55472e-07
3.36379e-08
6.92194e-09
1.35205e-09
2.50258e-10
4.38305e-11
7.25482e-12
1.13383e-12
1.67207e-13
2.32579e-14
3.05156e-15
3.77808e-16
4.41471e-17
4.86834e-18
5.06751e-19
4.98242e-20
4.55961e-21
0.000198554
0.000733225
0.00144214
0.00237437
0.00362047
0.00532083
0.00762131
0.010524
0.0139053
0.0176152
0.0215051
0.025463
0.0294048
0.0332749
0.0370042
0.0404514
0.043339
0.0452218
0.0454566
0.0438096
0.0390601
0.0315501
0.0229506
0.0147705
0.00818791
0.00373832
0.0013623
0.000421534
0.000120969
3.33263e-05
8.8158e-06
2.22859e-06
5.3745e-07
1.23534e-07
2.70276e-08
5.6176e-09
1.10721e-09
2.06619e-10
3.64586e-11
6.07673e-12
9.55959e-13
1.41857e-13
1.98508e-14
2.61993e-15
3.26258e-16
3.8343e-17
4.25256e-18
4.45198e-19
4.40238e-20
4.05058e-21
0.000121623
0.000441241
0.000855364
0.00139279
0.0021084
0.00309657
0.00446599
0.00625647
0.00844267
0.0109772
0.013801
0.0168491
0.020047
0.0233066
0.0265053
0.0294503
0.0318468
0.0332927
0.0333462
0.0318617
0.0279994
0.0223672
0.0161007
0.0102259
0.00555388
0.00246005
0.000881559
0.000276921
8.1647e-05
2.30451e-05
6.21527e-06
1.59754e-06
3.91041e-07
9.10912e-08
2.01689e-08
4.23722e-09
8.43139e-10
1.58685e-10
2.82166e-11
4.73628e-12
7.49985e-13
1.11981e-13
1.57634e-14
2.09259e-15
2.62078e-16
3.09726e-17
3.45422e-18
3.63639e-19
3.61596e-20
3.34443e-21
7.1596e-05
0.000257081
0.000494852
0.000802587
0.00121561
0.00179724
0.00262464
0.00373667
0.0051345
0.00680405
0.00872408
0.0108603
0.0131596
0.0155429
0.0178907
0.0200262
0.0217034
0.0226141
0.0225123
0.0212496
0.0183823
0.0145003
0.010279
0.00638876
0.00335357
0.00142901
0.000509168
0.000163896
4.98327e-05
1.44284e-05
3.97304e-06
1.03988e-06
2.58675e-07
6.11243e-08
1.37047e-08
2.91108e-09
5.84959e-10
1.11046e-10
1.9897e-11
3.36292e-12
5.35887e-13
8.0488e-14
1.13953e-14
1.52123e-15
1.91555e-16
2.27568e-17
2.55113e-18
2.69974e-19
2.69868e-20
2.50828e-21
4.06671e-05
0.00014496
0.000278017
0.00045056
0.000684363
0.00101844
0.0015031
0.00217129
0.00302989
0.00407472
0.00529573
0.0066715
0.00816337
0.00970895
0.0112141
0.0125459
0.0135328
0.0139745
0.013772
0.0127728
0.0108505
0.00839766
0.00580424
0.00347636
0.00173605
0.000716655
0.000258266
8.59024e-05
2.6962e-05
8.00927e-06
2.25382e-06
6.01292e-07
1.52119e-07
3.64777e-08
8.28349e-09
1.77898e-09
3.60863e-10
6.90747e-11
1.24679e-11
2.12107e-12
3.3998e-13
5.13418e-14
7.30692e-15
9.80402e-16
1.24054e-16
1.48068e-17
1.66755e-18
1.77284e-19
1.78042e-20
1.66198e-21
2.24623e-05
7.94567e-05
0.000151778
0.000245254
0.000371488
0.000551319
0.000813434
0.00118258
0.00166927
0.00227218
0.00298253
0.00378443
0.00464946
0.0055332
0.00637139
0.00707819
0.00755212
0.00768509
0.00745807
0.00674421
0.0055849
0.00418669
0.00277099
0.00156858
0.000746295
0.00030612
0.000113422
3.90773e-05
1.26358e-05
3.84826e-06
1.10681e-06
3.01015e-07
7.74342e-08
1.88353e-08
4.32919e-09
9.39314e-10
1.92216e-10
3.70715e-11
6.73506e-12
1.15229e-12
1.8562e-13
2.81597e-14
4.02502e-15
5.42278e-16
6.88852e-17
8.25323e-18
9.32964e-19
9.95611e-20
1.0037e-20
9.40161e-22
1.20395e-05
4.22196e-05
8.01417e-05
0.000128413
0.000191948
0.00027957
0.000404622
0.000581806
0.00082124
0.00112538
0.00148864
0.00189826
0.00233399
0.0027674
0.00316047
0.0034664
0.00363386
0.00362543
0.00343126
0.00298899
0.00237734
0.00169317
0.0010549
0.000566926
0.000264941
0.000110667
4.23513e-05
1.50385e-05
4.9902e-06
1.55507e-06
4.56466e-07
1.2636e-07
3.29955e-08
8.1263e-09
1.88704e-09
4.12943e-10
8.51094e-11
1.65129e-11
3.01469e-12
5.17839e-13
8.37081e-14
1.27389e-14
1.82601e-15
2.46661e-16
3.1413e-17
3.77292e-18
4.27524e-19
4.57328e-20
4.62189e-21
4.3375e-22
6.07864e-06
2.12509e-05
4.01563e-05
6.36809e-05
9.33546e-05
0.00013185
0.000183455
0.000254017
0.00034934
0.000472709
0.000622913
0.00079327
0.000972077
0.00114341
0.00128806
0.00138523
0.00141471
0.0013765
0.00124852
0.00103533
0.000779677
0.000525086
0.000312715
0.000164706
7.75405e-05
3.31089e-05
1.29748e-05
4.71055e-06
1.59572e-06
5.06695e-07
1.51189e-07
4.24316e-08
1.12037e-08
2.78359e-09
6.50797e-10
1.43158e-10
2.96202e-11
5.76282e-12
1.05404e-12
1.81283e-13
2.93338e-14
4.46798e-15
6.40813e-16
8.65756e-17
1.10244e-17
1.324e-18
1.50051e-19
1.60566e-20
1.62335e-21
1.52177e-22
2.62929e-06
9.46994e-06
1.81213e-05
2.86945e-05
4.14024e-05
5.67155e-05
7.54916e-05
9.90581e-05
0.000129013
0.000166646
0.000212202
0.000263619
0.000316439
0.000364418
0.000400413
0.000417586
0.000414353
0.000389398
0.000335815
0.000265333
0.00019072
0.000123653
7.19709e-05
3.76671e-05
1.78188e-05
7.6828e-06
3.0468e-06
1.12021e-06
3.84058e-07
1.23224e-07
3.70677e-08
1.04634e-08
2.77265e-09
6.89966e-10
1.61305e-10
3.54345e-11
7.31338e-12
1.41827e-12
2.58467e-13
4.42825e-14
7.13689e-15
1.08264e-15
1.54637e-16
2.08042e-17
2.63773e-18
3.15432e-19
3.56064e-20
3.79592e-21
3.82433e-22
3.56036e-23
6.77646e-07
2.96747e-06
6.26026e-06
1.02065e-05
1.46807e-05
1.96442e-05
2.51448e-05
3.13353e-05
3.84404e-05
4.66227e-05
5.59828e-05
6.60934e-05
7.5895e-05
8.38468e-05
8.82144e-05
8.81639e-05
8.42605e-05
7.57286e-05
6.29272e-05
4.79384e-05
3.32616e-05
2.08039e-05
1.16788e-05
5.9597e-06
2.77275e-06
1.18344e-06
4.66411e-07
1.70683e-07
5.8238e-08
1.85755e-08
5.54687e-09
1.55206e-09
4.07066e-10
1.00128e-10
2.31179e-11
5.01222e-12
1.02059e-12
1.95272e-13
3.51154e-14
5.93756e-15
9.44753e-16
1.41543e-16
1.9972e-17
2.6553e-18
3.32798e-19
3.93547e-20
4.39485e-21
4.63718e-22
4.62625e-23
4.22887e-24
2.22471e-08
3.97919e-07
8.98473e-07
1.47217e-06
2.09799e-06
2.75209e-06
3.42239e-06
4.1012e-06
4.81044e-06
5.54575e-06
6.3236e-06
7.10606e-06
7.79469e-06
8.25059e-06
8.34809e-06
8.04462e-06
7.35485e-06
6.30677e-06
5.01886e-06
3.68038e-06
2.47496e-06
1.51564e-06
8.42573e-07
4.28051e-07
1.99973e-07
8.63654e-08
3.46313e-08
1.29399e-08
4.51775e-09
1.47781e-09
4.59584e-10
1.29427e-10
3.14931e-11
6.83099e-12
1.46269e-12
3.1956e-13
6.64379e-14
1.20689e-14
1.88823e-15
2.87452e-16
4.6752e-17
7.44172e-18
9.86207e-19
1.1403e-19
1.29479e-20
1.53404e-21
1.81645e-22
1.79237e-23
1.66884e-24
1.42946e-25
)
;

boundaryField
{
    AXIS
    {
        type            empty;
    }
    OUTLET
    {
        type            zeroGradient;
    }
    COFLOW
    {
        type            fixedValue;
        value           uniform 0;
    }
    PILOT
    {
        type            fixedValue;
        value           uniform 0;
    }
    FUEL
    {
        type            fixedValue;
        value           uniform 0;
    }
    WALL
    {
        type            zeroGradient;
    }
    front
    {
        type            wedge;
    }
    back
    {
        type            wedge;
    }
}


// ************************************************************************* //
