/*--------------------------------*- C++ -*----------------------------------*\
| =========                 |                                                 |
| \\      /  F ield         | OpenFOAM: The Open Source CFD Toolbox           |
|  \\    /   O peration     | Version:  2.4.x                                 |
|   \\  /    A nd           | Web:      www.OpenFOAM.org                      |
|    \\/     M anipulation  |                                                 |
\*---------------------------------------------------------------------------*/
FoamFile
{
    version     2.0;
    format      ascii;
    class       volScalarField;
    location    "0.03";
    object      Z;
}
// * * * * * * * * * * * * * * * * * * * * * * * * * * * * * * * * * * * * * //

dimensions      [0 0 0 0 0 0 0];

internalField   nonuniform List<scalar> 
1250
(
0.997381
0.989522
0.978941
0.966934
0.953744
0.939793
0.925468
0.911281
0.89747
0.884075
0.87103
0.858204
0.845674
0.833407
0.821307
0.809491
0.797337
0.785659
0.771104
0.739542
0.658745
0.498598
0.337697
0.21097
0.121769
0.0638724
0.0287162
0.0104394
0.00313511
0.000855605
0.000224191
5.64608e-05
1.35015e-05
3.04912e-06
6.49289e-07
1.30286e-07
2.46228e-08
4.38292e-09
7.34282e-10
1.15824e-10
1.72022e-11
2.40557e-12
3.16776e-13
3.9298e-14
4.59517e-15
5.06715e-16
5.27024e-17
5.17176e-18
4.79253e-19
4.14448e-20
0.996976
0.988114
0.976595
0.963675
0.949623
0.935049
0.920325
0.905985
0.892137
0.878768
0.865792
0.853087
0.840694
0.828576
0.816628
0.804944
0.792977
0.781414
0.766786
0.734847
0.652959
0.493893
0.334832
0.20941
0.120964
0.0634749
0.0285368
0.0103722
0.00311544
0.000850561
0.000222981
5.61798e-05
1.34396e-05
3.0363e-06
6.46805e-07
1.29837e-07
2.45476e-08
4.37124e-09
7.32603e-10
1.15602e-10
1.71758e-11
2.40281e-12
3.16537e-13
3.92841e-14
4.59543e-15
5.06955e-16
5.27495e-17
5.17861e-18
4.80095e-19
4.15309e-20
0.995718
0.984025
0.969899
0.954537
0.938457
0.92269
0.907368
0.892936
0.879196
0.86611
0.85348
0.841178
0.82919
0.817478
0.805917
0.79461
0.783079
0.771785
0.756957
0.724033
0.639555
0.483042
0.328121
0.205675
0.118997
0.0624794
0.0280758
0.0101944
0.0030622
0.000836869
0.00021966
5.53967e-05
1.32629e-05
2.9986e-06
6.39227e-07
1.28405e-07
2.42936e-08
4.32893e-09
7.25983e-10
1.1463e-10
1.70423e-11
2.38567e-12
3.14483e-13
3.9055e-14
4.57173e-15
5.04689e-16
5.25506e-17
5.16278e-18
4.78978e-19
4.14608e-20
0.991831
0.973512
0.953481
0.933753
0.915184
0.898642
0.883417
0.86964
0.856843
0.844774
0.833109
0.82173
0.810603
0.799689
0.788881
0.778279
0.76746
0.756606
0.741398
0.70687
0.61876
0.466519
0.317821
0.199837
0.115887
0.0608821
0.0273287
0.00990449
0.00297501
0.000814456
0.000214207
5.41034e-05
1.2969e-05
2.93535e-06
6.26382e-07
1.25949e-07
2.38516e-08
4.25407e-09
7.14056e-10
1.12844e-10
1.6791e-11
2.35249e-12
3.10377e-13
3.85789e-14
4.52005e-15
4.99442e-16
5.2053e-17
5.11879e-18
4.75361e-19
4.11849e-20
0.973997
0.940208
0.911348
0.889103
0.87121
0.856816
0.844297
0.833173
0.822944
0.813115
0.803389
0.793721
0.784119
0.774562
0.764972
0.755477
0.745652
0.735379
0.719588
0.682932
0.591048
0.445106
0.304431
0.192145
0.111756
0.0587411
0.0263244
0.0095153
0.00285822
0.000784434
0.000206889
5.23652e-05
1.25734e-05
2.85002e-06
6.09009e-07
1.22616e-07
2.32498e-08
4.15174e-09
6.97684e-10
1.10381e-10
1.64428e-11
2.30627e-12
3.0462e-13
3.79066e-14
4.44647e-15
4.91897e-16
5.13292e-17
5.05392e-18
4.69934e-19
4.07635e-20
0.798789
0.825881
0.817312
0.807919
0.799719
0.793359
0.787631
0.781958
0.776221
0.770157
0.763627
0.756609
0.749299
0.741702
0.733811
0.725825
0.717235
0.707612
0.691106
0.652028
0.557231
0.419799
0.288556
0.182924
0.106763
0.056137
0.0251016
0.00904323
0.00271707
0.000748162
0.000198027
5.02564e-05
1.20931e-05
2.74637e-06
5.87899e-07
1.18564e-07
2.25176e-08
4.02713e-09
6.77739e-10
1.07379e-10
1.60183e-11
2.24991e-12
2.97599e-13
3.70866e-14
4.35672e-15
4.82699e-16
5.04473e-17
4.97494e-18
4.63337e-19
4.02528e-20
0.502542
0.641401
0.676941
0.69396
0.703675
0.710147
0.714406
0.716673
0.717136
0.716273
0.714036
0.710449
0.706133
0.701057
0.695339
0.689199
0.682
0.673035
0.655839
0.614373
0.518744
0.391805
0.270882
0.172545
0.10109
0.0531665
0.0237062
0.00850725
0.00255754
0.000707168
0.000187985
4.78626e-05
1.15475e-05
2.62867e-06
5.63939e-07
1.13969e-07
2.16875e-08
3.88598e-09
6.55179e-10
1.03991e-10
1.55402e-11
2.18658e-12
2.89737e-13
3.61718e-14
4.25707e-15
4.72545e-16
4.94808e-17
4.8892e-18
4.56264e-19
3.97137e-20
0.319805
0.451806
0.51647
0.56054
0.591156
0.61256
0.62861
0.640083
0.647974
0.65285
0.655479
0.65589
0.655116
0.653025
0.649845
0.64583
0.640162
0.631861
0.614274
0.570745
0.477532
0.362319
0.252103
0.161394
0.0949384
0.0499365
0.0221886
0.00792841
0.00238615
0.000663112
0.000177164
4.5279e-05
1.09585e-05
2.50169e-06
5.38122e-07
1.09025e-07
2.07961e-08
3.73478e-09
6.31092e-10
1.00388e-10
1.5034e-11
2.11992e-12
2.81514e-13
3.52228e-14
4.15472e-15
4.62243e-16
4.85154e-17
4.80525e-18
4.49522e-19
3.9218e-20
0.239466
0.280135
0.353323
0.419407
0.469661
0.50657
0.534611
0.555553
0.571099
0.582067
0.58984
0.594617
0.597376
0.598372
0.598026
0.596365
0.592441
0.585072
0.567397
0.522451
0.435784
0.332477
0.232809
0.149855
0.0885222
0.0465565
0.0206017
0.00732861
0.0022096
0.000617714
0.000165982
4.26064e-05
1.03494e-05
2.37056e-06
5.11522e-07
1.03945e-07
1.98836e-08
3.58065e-09
6.06669e-10
9.6758e-11
1.45282e-11
2.05394e-12
2.73473e-13
3.4308e-14
4.05781e-15
4.5271e-16
4.76484e-17
4.7329e-18
4.44047e-19
3.88487e-20
0.13409
0.137503
0.202145
0.281437
0.346705
0.397331
0.436314
0.466275
0.488988
0.505869
0.518688
0.527709
0.534094
0.538374
0.541033
0.541488
0.539616
0.53381
0.516554
0.47246
0.394896
0.30307
0.213552
0.138322
0.082045
0.0431354
0.0189998
0.00672953
0.00203448
0.000572688
0.000154865
3.99478e-05
9.74431e-06
2.24062e-06
4.85263e-07
9.89548e-08
1.89925e-08
3.43123e-09
5.83203e-10
9.33082e-11
1.40539e-11
1.99309e-12
2.66209e-13
3.3503e-14
3.97541e-15
4.44974e-16
4.69903e-17
4.68334e-18
4.40908e-19
3.87013e-20
0.0177414
0.0474092
0.0927584
0.159683
0.22842
0.287485
0.335077
0.372738
0.401858
0.424312
0.441698
0.454861
0.464967
0.472665
0.47848
0.481869
0.481975
0.478088
0.462437
0.422394
0.35454
0.273909
0.194309
0.126756
0.0754803
0.0396674
0.017384
0.00613231
0.00186119
0.000528091
0.000143824
3.7307e-05
9.14442e-06
2.11222e-06
4.59436e-07
9.40774e-08
1.81288e-08
3.28779e-09
5.60962e-10
9.00906e-11
1.36203e-11
1.9389e-12
2.59953e-13
3.28407e-14
3.91189e-15
4.39579e-16
4.66046e-17
4.66355e-18
4.40832e-19
3.88453e-20
0.00504878
0.0181645
0.0383826
0.0736779
0.124684
0.180922
0.231742
0.27436
0.308655
0.336041
0.357625
0.374944
0.388928
0.400393
0.409797
0.416714
0.419762
0.417486
0.404801
0.370957
0.312988
0.24364
0.174174
0.114518
0.0684539
0.0359461
0.0156575
0.00550176
0.00167895
0.000480898
0.000132049
3.4476e-05
8.49913e-06
1.97376e-06
4.3154e-07
8.88048e-08
1.71951e-08
3.1326e-09
5.36985e-10
8.66354e-11
1.31575e-11
1.8815e-12
2.53403e-13
3.2159e-14
3.84831e-15
4.34444e-16
4.62762e-17
4.65264e-18
4.41904e-19
3.91174e-20
0.00224778
0.00861586
0.0179569
0.0331974
0.0585628
0.0954037
0.137835
0.178716
0.214425
0.244664
0.269765
0.290891
0.308724
0.324105
0.337329
0.347963
0.354321
0.353917
0.344834
0.317677
0.269784
0.211689
0.152651
0.101176
0.0606786
0.0317948
0.0137351
0.00480722
0.00147788
0.000428063
0.000118651
3.12108e-05
7.7454e-06
1.80999e-06
3.98106e-07
8.23948e-08
1.60426e-08
2.9374e-09
5.06294e-10
8.21204e-11
1.25367e-11
1.80198e-12
2.4394e-13
3.11174e-14
3.74295e-15
4.24759e-16
4.5483e-17
4.59718e-18
4.38969e-19
3.90553e-20
0.00126875
0.00485549
0.00992419
0.0175242
0.0295669
0.0484249
0.0744892
0.104623
0.134926
0.16334
0.188913
0.211771
0.232154
0.250435
0.266627
0.280117
0.28919
0.291046
0.285025
0.264204
0.225969
0.178671
0.130032
0.086795
0.0521522
0.027189
0.0116082
0.00404798
0.00125668
0.000368745
0.000103291
2.73984e-05
6.8499e-06
1.61194e-06
3.56906e-07
7.43368e-08
1.45622e-08
2.68285e-09
4.65152e-10
7.58619e-11
1.16453e-11
1.68307e-12
2.29094e-13
2.93842e-14
3.55402e-15
4.05563e-16
4.3671e-17
4.43894e-18
4.26261e-19
3.81287e-20
0.000807767
0.00304191
0.00613656
0.0105913
0.0173364
0.0277193
0.0427876
0.0619245
0.083359
0.105576
0.127498
0.14858
0.16852
0.187127
0.204024
0.218361
0.228506
0.231932
0.228047
0.212505
0.182869
0.145639
0.106874
0.0716733
0.0430328
0.0222086
0.00932812
0.00324631
0.00102033
0.000303849
8.60967e-05
2.30468e-05
5.80863e-06
1.37726e-06
3.07139e-07
6.44072e-08
1.26992e-08
2.35454e-09
4.1075e-10
6.73869e-11
1.04044e-11
1.51236e-12
2.07025e-13
2.67041e-14
3.24826e-15
3.7279e-16
4.03728e-17
4.12745e-18
3.98648e-19
3.58546e-20
0.000541411
0.00200962
0.00402324
0.00688132
0.011143
0.0176691
0.027235
0.0397237
0.0543717
0.0704072
0.0872028
0.104282
0.121209
0.137546
0.152688
0.16567
0.17501
0.17866
0.176015
0.164426
0.142105
0.113799
0.0839556
0.0563817
0.0336587
0.0170572
0.00701815
0.00244456
0.000780589
0.000236281
6.77724e-05
1.83185e-05
4.6567e-06
1.11293e-06
2.50066e-07
5.28124e-08
1.04834e-08
1.95631e-09
3.43411e-10
5.66807e-11
8.80315e-12
1.28698e-12
1.7718e-13
2.29848e-14
2.81182e-15
3.24543e-16
3.53493e-17
3.63475e-18
3.53094e-19
3.19311e-20
0.000368446
0.00135403
0.00270099
0.00461374
0.00747222
0.0118805
0.0183987
0.0270104
0.0372776
0.0487576
0.061097
0.0739856
0.0870781
0.0999383
0.111956
0.122241
0.129569
0.132413
0.130333
0.121571
0.105154
0.0843985
0.0623336
0.0416825
0.0245167
0.012066
0.00485681
0.00170337
0.000554441
0.000170697
4.95707e-05
1.35337e-05
3.47102e-06
8.36344e-07
1.8935e-07
4.0279e-08
8.05004e-09
1.51193e-09
2.67045e-10
4.43392e-11
6.92618e-12
1.01828e-12
1.4097e-13
1.83898e-14
2.26225e-15
2.62559e-16
2.8757e-17
2.9735e-18
2.90488e-19
2.64093e-20
0.000250694
0.000915068
0.001823
0.00311895
0.00506987
0.00810274
0.0126301
0.0186713
0.0259407
0.0341295
0.0429985
0.0523234
0.0618336
0.0711656
0.0798081
0.0870584
0.092023
0.0936644
0.0917772
0.0850479
0.0733096
0.0586871
0.0430809
0.0283936
0.016204
0.00765821
0.00303813
0.00108061
0.000359244
0.000112431
3.30483e-05
9.11391e-06
2.35837e-06
5.72871e-07
1.30669e-07
2.79895e-08
5.63107e-09
1.0642e-09
1.8907e-10
3.15693e-11
4.95815e-12
7.3281e-13
1.0199e-13
1.33762e-14
1.65422e-15
1.92989e-16
2.12474e-17
2.20863e-18
2.16919e-19
1.98197e-20
0.000169429
0.000614524
0.00122136
0.00208773
0.003392
0.00541909
0.00846634
0.0126016
0.0176397
0.023347
0.029527
0.0359919
0.0425201
0.0488209
0.0545074
0.0590792
0.061949
0.0625047
0.0607037
0.055552
0.047442
0.0375456
0.0270558
0.0172644
0.00937893
0.00426291
0.00168911
0.00061307
0.000207964
6.60429e-05
1.96329e-05
5.46649e-06
1.42662e-06
3.49201e-07
8.02078e-08
1.72914e-08
3.49944e-09
6.65097e-10
1.18804e-10
1.99389e-11
3.14683e-12
4.67325e-13
6.5354e-14
8.61271e-15
1.0702e-15
1.25438e-16
1.38747e-17
1.44907e-18
1.43002e-19
1.31246e-20
0.000112613
0.000404854
0.000799079
0.00135428
0.00217532
0.00343155
0.00532226
0.00794947
0.0112402
0.0150227
0.0191159
0.0233525
0.0275476
0.0314801
0.0348793
0.0374196
0.0387471
0.0386211
0.0369213
0.0331128
0.0277328
0.0213655
0.0147967
0.0089273
0.00459059
0.00204504
0.0008204
0.000304005
0.000104804
3.36841e-05
1.01125e-05
2.8398e-06
7.46701e-07
1.83991e-07
4.25128e-08
9.21482e-09
1.87438e-09
3.57946e-10
6.42296e-11
1.08257e-11
1.71543e-12
2.5576e-13
3.59088e-14
4.75087e-15
5.92619e-16
6.97287e-17
7.74246e-18
8.11796e-19
8.04354e-20
7.40932e-21
7.18927e-05
0.000255572
0.000498535
0.000830765
0.00130288
0.00199693
0.00302392
0.0044801
0.0063792
0.00863956
0.011124
0.0136792
0.0161484
0.0183692
0.0201654
0.0213488
0.0217318
0.0213009
0.0198119
0.017224
0.0138824
0.0101679
0.00661169
0.00375559
0.0018698
0.000833988
0.00033983
0.000127733
4.45077e-05
1.44301e-05
4.36483e-06
1.23373e-06
3.26207e-07
8.07627e-08
1.87389e-08
4.07722e-09
8.32319e-10
1.59477e-10
2.87024e-11
4.85068e-12
7.70667e-13
1.15204e-13
1.62165e-14
2.151e-15
2.69011e-16
3.17352e-17
3.533e-18
3.71419e-19
3.6903e-20
3.40677e-21
4.20841e-05
0.000148748
0.000287245
0.000469933
0.000715903
0.00105468
0.00152891
0.00218959
0.00307307
0.00417254
0.00542753
0.00673702
0.00798451
0.00905367
0.00983538
0.0102309
0.010199
0.00972638
0.00865938
0.00717274
0.00545442
0.00375171
0.00230742
0.00126679
0.000625201
0.000280238
0.000114954
4.34475e-05
1.52129e-05
4.95389e-06
1.50404e-06
4.26389e-07
1.12995e-07
2.80222e-08
6.50998e-09
1.41783e-09
2.8965e-10
5.55262e-11
9.99628e-12
1.68973e-12
2.68556e-13
4.01664e-14
5.65667e-15
7.50506e-16
9.387e-17
1.1076e-17
1.23366e-18
1.29784e-19
1.29048e-20
1.19048e-21
2.04127e-05
7.42118e-05
0.000144614
0.000234962
0.000349956
0.000496762
0.000685812
0.00093075
0.00124492
0.00163425
0.00208797
0.00256973
0.00302526
0.00339526
0.00362687
0.00368358
0.0035876
0.00327958
0.00278123
0.00218687
0.00157832
0.00103712
0.000617083
0.000332288
0.000162281
7.22453e-05
2.94896e-05
1.11059e-05
3.87722e-06
1.25895e-06
3.81e-07
1.07619e-07
2.84046e-08
7.01332e-09
1.62177e-09
3.51525e-10
7.14573e-11
1.36305e-11
2.44218e-12
4.10936e-13
6.50283e-14
9.68557e-15
1.35854e-15
1.79531e-16
2.23657e-17
2.6288e-18
2.91761e-19
3.05931e-20
3.03273e-21
2.77984e-22
5.76774e-06
2.54945e-05
5.49366e-05
9.18964e-05
0.000136117
0.000188052
0.000248766
0.000320019
0.00040369
0.000500312
0.000608143
0.000719074
0.000818999
0.000891092
0.000920203
0.000908568
0.000856258
0.000754533
0.000612794
0.000459194
0.000316354
0.000199268
0.000114208
5.94809e-05
2.82197e-05
1.22592e-05
4.90025e-06
1.81128e-06
6.21451e-07
1.98411e-07
5.9043e-08
1.64004e-08
4.25761e-09
1.03432e-09
2.35416e-10
5.02335e-11
1.00537e-11
1.88925e-12
3.33756e-13
5.54106e-14
8.65583e-15
1.27314e-15
1.76425e-16
2.30461e-17
2.83928e-18
3.30151e-19
3.62626e-20
3.7648e-21
3.69714e-22
3.329e-23
2.18674e-07
4.25511e-06
1.10799e-05
1.9276e-05
2.77207e-05
3.69081e-05
4.65779e-05
5.67913e-05
6.76581e-05
7.89209e-05
9.04276e-05
0.000101301
0.000109982
0.00011467
0.000114124
0.000108249
9.71798e-05
8.17245e-05
6.3842e-05
4.61163e-05
3.07205e-05
1.88134e-05
1.05476e-05
5.41841e-06
2.55924e-06
1.11563e-06
4.5041e-07
1.69027e-07
6.00744e-08
1.9336e-08
5.34819e-09
1.28962e-09
3.02592e-10
7.33893e-11
1.72655e-11
3.57329e-12
6.19715e-13
1.00375e-13
1.76853e-14
3.20184e-15
4.96659e-16
6.31459e-17
7.91082e-18
9.65621e-19
1.20759e-19
1.41736e-20
1.45851e-21
1.44379e-22
1.3684e-23
1.17517e-24
)
;

boundaryField
{
    AXIS
    {
        type            empty;
    }
    OUTLET
    {
        type            inletOutlet;
        inletValue      uniform 0;
        value           nonuniform List<scalar> 
25
(
4.14448e-20
4.15309e-20
4.14608e-20
4.11849e-20
4.07635e-20
4.02528e-20
3.97137e-20
3.9218e-20
3.88487e-20
3.87013e-20
3.88453e-20
3.91174e-20
3.90553e-20
3.81287e-20
3.58546e-20
3.19311e-20
2.64093e-20
1.98197e-20
1.31246e-20
7.40932e-21
3.40677e-21
1.19048e-21
2.77984e-22
3.329e-23
1.17517e-24
)
;
    }
    COFLOW
    {
        type            fixedValue;
        value           uniform 0;
    }
    PILOT
    {
        type            fixedValue;
        value           uniform 0.271;
    }
    FUEL
    {
        type            fixedValue;
        value           uniform 1;
    }
    WALL
    {
        type            zeroGradient;
    }
    front
    {
        type            wedge;
    }
    back
    {
        type            wedge;
    }
}


// ************************************************************************* //
